<?xml version="1.0" ?> 
<!-- 
# vtk DataFile Version 3.0
#This file was generated by the deal.II library on 16:39:56 at 2019/11/27
-->
<VTKFile type="UnstructuredGrid" version="0.1" byte_order="LittleEndian">
<UnstructuredGrid>
<Piece NumberOfPoints="64000" NumberOfCells="8000" >
  <Points>
    <DataArray type="Float32" NumberOfComponents="3" format="ascii">
-100 -100 0
-90 -100 0
-100 -90 0
-90 -90 0
-100 -100 10
-90 -100 10
-100 -90 10
-90 -90 10
-90 -100 0
-80 -100 0
-90 -90 0
-80 -90 0
-90 -100 10
-80 -100 10
-90 -90 10
-80 -90 10
-100 -90 0
-90 -90 0
-100 -80 0
-90 -80 0
-100 -90 10
-90 -90 10
-100 -80 10
-90 -80 10
-90 -90 0
-80 -90 0
-90 -80 0
-80 -80 0
-90 -90 10
-80 -90 10
-90 -80 10
-80 -80 10
-100 -100 10
-90 -100 10
-100 -90 10
-90 -90 10
-100 -100 20
-90 -100 20
-100 -90 20
-90 -90 20
-90 -100 10
-80 -100 10
-90 -90 10
-80 -90 10
-90 -100 20
-80 -100 20
-90 -90 20
-80 -90 20
-100 -90 10
-90 -90 10
-100 -80 10
-90 -80 10
-100 -90 20
-90 -90 20
-100 -80 20
-90 -80 20
-90 -90 10
-80 -90 10
-90 -80 10
-80 -80 10
-90 -90 20
-80 -90 20
-90 -80 20
-80 -80 20
-80 -100 0
-70 -100 0
-80 -90 0
-70 -90 0
-80 -100 10
-70 -100 10
-80 -90 10
-70 -90 10
-70 -100 0
-60 -100 0
-70 -90 0
-60 -90 0
-70 -100 10
-60 -100 10
-70 -90 10
-60 -90 10
-80 -90 0
-70 -90 0
-80 -80 0
-70 -80 0
-80 -90 10
-70 -90 10
-80 -80 10
-70 -80 10
-70 -90 0
-60 -90 0
-70 -80 0
-60 -80 0
-70 -90 10
-60 -90 10
-70 -80 10
-60 -80 10
-80 -100 10
-70 -100 10
-80 -90 10
-70 -90 10
-80 -100 20
-70 -100 20
-80 -90 20
-70 -90 20
-70 -100 10
-60 -100 10
-70 -90 10
-60 -90 10
-70 -100 20
-60 -100 20
-70 -90 20
-60 -90 20
-80 -90 10
-70 -90 10
-80 -80 10
-70 -80 10
-80 -90 20
-70 -90 20
-80 -80 20
-70 -80 20
-70 -90 10
-60 -90 10
-70 -80 10
-60 -80 10
-70 -90 20
-60 -90 20
-70 -80 20
-60 -80 20
-60 -100 0
-50 -100 0
-60 -90 0
-50 -90 0
-60 -100 10
-50 -100 10
-60 -90 10
-50 -90 10
-50 -100 0
-40 -100 0
-50 -90 0
-40 -90 0
-50 -100 10
-40 -100 10
-50 -90 10
-40 -90 10
-60 -90 0
-50 -90 0
-60 -80 0
-50 -80 0
-60 -90 10
-50 -90 10
-60 -80 10
-50 -80 10
-50 -90 0
-40 -90 0
-50 -80 0
-40 -80 0
-50 -90 10
-40 -90 10
-50 -80 10
-40 -80 10
-60 -100 10
-50 -100 10
-60 -90 10
-50 -90 10
-60 -100 20
-50 -100 20
-60 -90 20
-50 -90 20
-50 -100 10
-40 -100 10
-50 -90 10
-40 -90 10
-50 -100 20
-40 -100 20
-50 -90 20
-40 -90 20
-60 -90 10
-50 -90 10
-60 -80 10
-50 -80 10
-60 -90 20
-50 -90 20
-60 -80 20
-50 -80 20
-50 -90 10
-40 -90 10
-50 -80 10
-40 -80 10
-50 -90 20
-40 -90 20
-50 -80 20
-40 -80 20
-40 -100 0
-30 -100 0
-40 -90 0
-30 -90 0
-40 -100 10
-30 -100 10
-40 -90 10
-30 -90 10
-30 -100 0
-20 -100 0
-30 -90 0
-20 -90 0
-30 -100 10
-20 -100 10
-30 -90 10
-20 -90 10
-40 -90 0
-30 -90 0
-40 -80 0
-30 -80 0
-40 -90 10
-30 -90 10
-40 -80 10
-30 -80 10
-30 -90 0
-20 -90 0
-30 -80 0
-20 -80 0
-30 -90 10
-20 -90 10
-30 -80 10
-20 -80 10
-40 -100 10
-30 -100 10
-40 -90 10
-30 -90 10
-40 -100 20
-30 -100 20
-40 -90 20
-30 -90 20
-30 -100 10
-20 -100 10
-30 -90 10
-20 -90 10
-30 -100 20
-20 -100 20
-30 -90 20
-20 -90 20
-40 -90 10
-30 -90 10
-40 -80 10
-30 -80 10
-40 -90 20
-30 -90 20
-40 -80 20
-30 -80 20
-30 -90 10
-20 -90 10
-30 -80 10
-20 -80 10
-30 -90 20
-20 -90 20
-30 -80 20
-20 -80 20
-20 -100 0
-10 -100 0
-20 -90 0
-10 -90 0
-20 -100 10
-10 -100 10
-20 -90 10
-10 -90 10
-10 -100 0
0 -100 0
-10 -90 0
0 -90 0
-10 -100 10
0 -100 10
-10 -90 10
0 -90 10
-20 -90 0
-10 -90 0
-20 -80 0
-10 -80 0
-20 -90 10
-10 -90 10
-20 -80 10
-10 -80 10
-10 -90 0
0 -90 0
-10 -80 0
0 -80 0
-10 -90 10
0 -90 10
-10 -80 10
0 -80 10
-20 -100 10
-10 -100 10
-20 -90 10
-10 -90 10
-20 -100 20
-10 -100 20
-20 -90 20
-10 -90 20
-10 -100 10
0 -100 10
-10 -90 10
0 -90 10
-10 -100 20
0 -100 20
-10 -90 20
0 -90 20
-20 -90 10
-10 -90 10
-20 -80 10
-10 -80 10
-20 -90 20
-10 -90 20
-20 -80 20
-10 -80 20
-10 -90 10
0 -90 10
-10 -80 10
0 -80 10
-10 -90 20
0 -90 20
-10 -80 20
0 -80 20
0 -100 0
10 -100 0
0 -90 0
10 -90 0
0 -100 10
10 -100 10
0 -90 10
10 -90 10
10 -100 0
20 -100 0
10 -90 0
20 -90 0
10 -100 10
20 -100 10
10 -90 10
20 -90 10
0 -90 0
10 -90 0
0 -80 0
10 -80 0
0 -90 10
10 -90 10
0 -80 10
10 -80 10
10 -90 0
20 -90 0
10 -80 0
20 -80 0
10 -90 10
20 -90 10
10 -80 10
20 -80 10
0 -100 10
10 -100 10
0 -90 10
10 -90 10
0 -100 20
10 -100 20
0 -90 20
10 -90 20
10 -100 10
20 -100 10
10 -90 10
20 -90 10
10 -100 20
20 -100 20
10 -90 20
20 -90 20
0 -90 10
10 -90 10
0 -80 10
10 -80 10
0 -90 20
10 -90 20
0 -80 20
10 -80 20
10 -90 10
20 -90 10
10 -80 10
20 -80 10
10 -90 20
20 -90 20
10 -80 20
20 -80 20
20 -100 0
30 -100 0
20 -90 0
30 -90 0
20 -100 10
30 -100 10
20 -90 10
30 -90 10
30 -100 0
40 -100 0
30 -90 0
40 -90 0
30 -100 10
40 -100 10
30 -90 10
40 -90 10
20 -90 0
30 -90 0
20 -80 0
30 -80 0
20 -90 10
30 -90 10
20 -80 10
30 -80 10
30 -90 0
40 -90 0
30 -80 0
40 -80 0
30 -90 10
40 -90 10
30 -80 10
40 -80 10
20 -100 10
30 -100 10
20 -90 10
30 -90 10
20 -100 20
30 -100 20
20 -90 20
30 -90 20
30 -100 10
40 -100 10
30 -90 10
40 -90 10
30 -100 20
40 -100 20
30 -90 20
40 -90 20
20 -90 10
30 -90 10
20 -80 10
30 -80 10
20 -90 20
30 -90 20
20 -80 20
30 -80 20
30 -90 10
40 -90 10
30 -80 10
40 -80 10
30 -90 20
40 -90 20
30 -80 20
40 -80 20
40 -100 0
50 -100 0
40 -90 0
50 -90 0
40 -100 10
50 -100 10
40 -90 10
50 -90 10
50 -100 0
60 -100 0
50 -90 0
60 -90 0
50 -100 10
60 -100 10
50 -90 10
60 -90 10
40 -90 0
50 -90 0
40 -80 0
50 -80 0
40 -90 10
50 -90 10
40 -80 10
50 -80 10
50 -90 0
60 -90 0
50 -80 0
60 -80 0
50 -90 10
60 -90 10
50 -80 10
60 -80 10
40 -100 10
50 -100 10
40 -90 10
50 -90 10
40 -100 20
50 -100 20
40 -90 20
50 -90 20
50 -100 10
60 -100 10
50 -90 10
60 -90 10
50 -100 20
60 -100 20
50 -90 20
60 -90 20
40 -90 10
50 -90 10
40 -80 10
50 -80 10
40 -90 20
50 -90 20
40 -80 20
50 -80 20
50 -90 10
60 -90 10
50 -80 10
60 -80 10
50 -90 20
60 -90 20
50 -80 20
60 -80 20
60 -100 0
70 -100 0
60 -90 0
70 -90 0
60 -100 10
70 -100 10
60 -90 10
70 -90 10
70 -100 0
80 -100 0
70 -90 0
80 -90 0
70 -100 10
80 -100 10
70 -90 10
80 -90 10
60 -90 0
70 -90 0
60 -80 0
70 -80 0
60 -90 10
70 -90 10
60 -80 10
70 -80 10
70 -90 0
80 -90 0
70 -80 0
80 -80 0
70 -90 10
80 -90 10
70 -80 10
80 -80 10
60 -100 10
70 -100 10
60 -90 10
70 -90 10
60 -100 20
70 -100 20
60 -90 20
70 -90 20
70 -100 10
80 -100 10
70 -90 10
80 -90 10
70 -100 20
80 -100 20
70 -90 20
80 -90 20
60 -90 10
70 -90 10
60 -80 10
70 -80 10
60 -90 20
70 -90 20
60 -80 20
70 -80 20
70 -90 10
80 -90 10
70 -80 10
80 -80 10
70 -90 20
80 -90 20
70 -80 20
80 -80 20
80 -100 0
90 -100 0
80 -90 0
90 -90 0
80 -100 10
90 -100 10
80 -90 10
90 -90 10
90 -100 0
100 -100 0
90 -90 0
100 -90 0
90 -100 10
100 -100 10
90 -90 10
100 -90 10
80 -90 0
90 -90 0
80 -80 0
90 -80 0
80 -90 10
90 -90 10
80 -80 10
90 -80 10
90 -90 0
100 -90 0
90 -80 0
100 -80 0
90 -90 10
100 -90 10
90 -80 10
100 -80 10
80 -100 10
90 -100 10
80 -90 10
90 -90 10
80 -100 20
90 -100 20
80 -90 20
90 -90 20
90 -100 10
100 -100 10
90 -90 10
100 -90 10
90 -100 20
100 -100 20
90 -90 20
100 -90 20
80 -90 10
90 -90 10
80 -80 10
90 -80 10
80 -90 20
90 -90 20
80 -80 20
90 -80 20
90 -90 10
100 -90 10
90 -80 10
100 -80 10
90 -90 20
100 -90 20
90 -80 20
100 -80 20
-100 -80 0
-90 -80 0
-100 -70 0
-90 -70 0
-100 -80 10
-90 -80 10
-100 -70 10
-90 -70 10
-90 -80 0
-80 -80 0
-90 -70 0
-80 -70 0
-90 -80 10
-80 -80 10
-90 -70 10
-80 -70 10
-100 -70 0
-90 -70 0
-100 -60 0
-90 -60 0
-100 -70 10
-90 -70 10
-100 -60 10
-90 -60 10
-90 -70 0
-80 -70 0
-90 -60 0
-80 -60 0
-90 -70 10
-80 -70 10
-90 -60 10
-80 -60 10
-100 -80 10
-90 -80 10
-100 -70 10
-90 -70 10
-100 -80 20
-90 -80 20
-100 -70 20
-90 -70 20
-90 -80 10
-80 -80 10
-90 -70 10
-80 -70 10
-90 -80 20
-80 -80 20
-90 -70 20
-80 -70 20
-100 -70 10
-90 -70 10
-100 -60 10
-90 -60 10
-100 -70 20
-90 -70 20
-100 -60 20
-90 -60 20
-90 -70 10
-80 -70 10
-90 -60 10
-80 -60 10
-90 -70 20
-80 -70 20
-90 -60 20
-80 -60 20
-80 -80 0
-70 -80 0
-80 -70 0
-70 -70 0
-80 -80 10
-70 -80 10
-80 -70 10
-70 -70 10
-70 -80 0
-60 -80 0
-70 -70 0
-60 -70 0
-70 -80 10
-60 -80 10
-70 -70 10
-60 -70 10
-80 -70 0
-70 -70 0
-80 -60 0
-70 -60 0
-80 -70 10
-70 -70 10
-80 -60 10
-70 -60 10
-70 -70 0
-60 -70 0
-70 -60 0
-60 -60 0
-70 -70 10
-60 -70 10
-70 -60 10
-60 -60 10
-80 -80 10
-70 -80 10
-80 -70 10
-70 -70 10
-80 -80 20
-70 -80 20
-80 -70 20
-70 -70 20
-70 -80 10
-60 -80 10
-70 -70 10
-60 -70 10
-70 -80 20
-60 -80 20
-70 -70 20
-60 -70 20
-80 -70 10
-70 -70 10
-80 -60 10
-70 -60 10
-80 -70 20
-70 -70 20
-80 -60 20
-70 -60 20
-70 -70 10
-60 -70 10
-70 -60 10
-60 -60 10
-70 -70 20
-60 -70 20
-70 -60 20
-60 -60 20
-60 -80 0
-50 -80 0
-60 -70 0
-50 -70 0
-60 -80 10
-50 -80 10
-60 -70 10
-50 -70 10
-50 -80 0
-40 -80 0
-50 -70 0
-40 -70 0
-50 -80 10
-40 -80 10
-50 -70 10
-40 -70 10
-60 -70 0
-50 -70 0
-60 -60 0
-50 -60 0
-60 -70 10
-50 -70 10
-60 -60 10
-50 -60 10
-50 -70 0
-40 -70 0
-50 -60 0
-40 -60 0
-50 -70 10
-40 -70 10
-50 -60 10
-40 -60 10
-60 -80 10
-50 -80 10
-60 -70 10
-50 -70 10
-60 -80 20
-50 -80 20
-60 -70 20
-50 -70 20
-50 -80 10
-40 -80 10
-50 -70 10
-40 -70 10
-50 -80 20
-40 -80 20
-50 -70 20
-40 -70 20
-60 -70 10
-50 -70 10
-60 -60 10
-50 -60 10
-60 -70 20
-50 -70 20
-60 -60 20
-50 -60 20
-50 -70 10
-40 -70 10
-50 -60 10
-40 -60 10
-50 -70 20
-40 -70 20
-50 -60 20
-40 -60 20
-40 -80 0
-30 -80 0
-40 -70 0
-30 -70 0
-40 -80 10
-30 -80 10
-40 -70 10
-30 -70 10
-30 -80 0
-20 -80 0
-30 -70 0
-20 -70 0
-30 -80 10
-20 -80 10
-30 -70 10
-20 -70 10
-40 -70 0
-30 -70 0
-40 -60 0
-30 -60 0
-40 -70 10
-30 -70 10
-40 -60 10
-30 -60 10
-30 -70 0
-20 -70 0
-30 -60 0
-20 -60 0
-30 -70 10
-20 -70 10
-30 -60 10
-20 -60 10
-40 -80 10
-30 -80 10
-40 -70 10
-30 -70 10
-40 -80 20
-30 -80 20
-40 -70 20
-30 -70 20
-30 -80 10
-20 -80 10
-30 -70 10
-20 -70 10
-30 -80 20
-20 -80 20
-30 -70 20
-20 -70 20
-40 -70 10
-30 -70 10
-40 -60 10
-30 -60 10
-40 -70 20
-30 -70 20
-40 -60 20
-30 -60 20
-30 -70 10
-20 -70 10
-30 -60 10
-20 -60 10
-30 -70 20
-20 -70 20
-30 -60 20
-20 -60 20
-20 -80 0
-10 -80 0
-20 -70 0
-10 -70 0
-20 -80 10
-10 -80 10
-20 -70 10
-10 -70 10
-10 -80 0
0 -80 0
-10 -70 0
0 -70 0
-10 -80 10
0 -80 10
-10 -70 10
0 -70 10
[...]
  <PointData Scalars="scalars">
    <DataArray type="Float32" Name="u" format="ascii">
0.112473 0.118358 0.118358 0.125108 0.112197 0.118036 0.118036 0.124728 0.118358 0.124358 0.125108 0.132257 0.118036 0.123984 0.124728 0.131808 0.118358 0.125108 0.124358 0.132257 0.118036 0.124728 0.123984 0.131808 0.125108 0.132257 0.132257 0.140774 0.124728 0.131808 0.131808 0.140232 0.112197 0.118036 0.118036 0.124728 0.11138 0.117083 0.117083 0.123605 0.118036 0.123984 0.124728 0.131808 0.117083 0.122882 0.123605 0.130486 0.118036 0.124728 0.123984 0.131808 0.117083 0.123605 0.122882 0.130486 0.124728 0.131808 0.131808 0.140232 0.123605 0.130486 0.130486 0.138644 0.124358 0.130457 0.132257 0.13967 0.123984 0.130026 0.131808 0.139142 0.130457 0.136509 0.13967 0.147187 0.130026 0.136017 0.139142 0.14657 0.132257 0.13967 0.140774 0.149825 0.131808 0.139142 0.140232 0.149173 0.13967 0.147187 0.149825 0.159237 0.139142 0.14657 0.149173 0.158457 0.123984 0.130026 0.131808 0.139142 0.122882 0.128759 0.130486 0.137592 0.130026 0.136017 0.139142 0.14657 0.128759 0.134572 0.137592 0.144765 0.131808 0.139142 0.140232 0.149173 0.130486 0.137592 0.138644 0.147268 0.139142 0.14657 0.149173 0.158457 0.137592 0.144765 0.147268 0.156182 0.136509 0.142314 0.147187 0.154558 0.136017 0.141759 0.14657 0.153847 0.142314 0.147623 0.154558 0.161451 0.141759 0.147007 0.153847 0.160644 0.147187 0.154558 0.159237 0.168714 0.14657 0.153847 0.158457 0.167791 0.154558 0.161451 0.168714 0.177813 0.153847 0.160644 0.167791 0.176738 0.136017 0.141759 0.14657 0.153847 0.134572 0.140131 0.144765 0.15177 0.141759 0.147007 0.153847 0.160644 0.140131 0.145202 0.15177 0.158291 0.14657 0.153847 0.158457 0.167791 0.144765 0.15177 0.156182 0.165105 0.153847 0.160644 0.167791 0.176738 0.15177 0.158291 0.165105 0.173619 0.147623 0.152159 0.161451 0.167462 0.147007 0.151488 0.160644 0.166566 0.152159 0.155645 0.167462 0.172163 0.151488 0.15493 0.166566 0.171194 0.161451 0.167462 0.177813 0.185945 0.160644 0.166566 0.176738 0.184723 0.167462 0.172163 0.185945 0.192439 0.166566 0.171194 0.184723 0.191092 0.147007 0.151488 0.160644 0.166566 0.145202 0.149523 0.158291 0.163958 0.151488 0.15493 0.166566 0.171194 0.149523 0.152838 0.163958 0.168376 0.160644 0.166566 0.176738 0.184723 0.158291 0.163958 0.173619 0.181187 0.166566 0.171194 0.184723 0.191092 0.163958 0.168376 0.181187 0.187203 0.155645 0.157844 0.172163 0.175167 0.15493 0.157101 0.171194 0.174149 0.157844 0.158596 0.175167 0.176201 0.157101 0.157843 0.174149 0.175166 0.172163 0.175167 0.192439 0.19665 0.171194 0.174149 0.191092 0.19522 0.175167 0.176201 0.19665 0.198112 0.174149 0.175166 0.19522 0.19665 0.15493 0.157101 0.171194 0.174149 0.152838 0.154927 0.168376 0.171193 0.157101 0.157843 0.174149 0.175166 0.154927 0.155641 0.171193 0.172161 0.171194 0.174149 0.191092 0.19522 0.168376 0.171193 0.187203 0.191092 0.174149 0.175166 0.19522 0.19665 0.171193 0.172161 0.191092 0.19244 0.158596 0.157844 0.176201 0.175167 0.157843 0.157101 0.175166 0.174149 0.157844 0.155645 0.175167 0.172163 0.157101 0.15493 0.174149 0.171194 0.176201 0.175167 0.198112 0.19665 0.175166 0.174149 0.19665 0.19522 0.175167 0.172163 0.19665 0.192439 0.174149 0.171194 0.19522 0.191092 0.157843 0.157101 0.175166 0.174149 0.155641 0.154927 0.172161 0.171193 0.157101 0.15493 0.174149 0.171194 0.154927 0.152838 0.171193 0.168376 0.175166 0.174149 0.19665 0.19522 0.172161 0.171193 0.19244 0.191092 0.174149 0.171194 0.19522 0.191092 0.171193 0.168376 0.191092 0.187203 0.155645 0.152159 0.172163 0.167462 0.15493 0.151488 0.171194 0.166566 0.152159 0.147623 0.167462 0.161451 0.151488 0.147007 0.166566 0.160644 0.172163 0.167462 0.192439 0.185945 0.171194 0.166566 0.191092 0.184723 0.167462 0.161451 0.185945 0.177813 0.166566 0.160644 0.184723 0.176738 0.15493 0.151488 0.171194 0.166566 0.152838 0.149523 0.168376 0.163958 0.151488 0.147007 0.166566 0.160644 0.149523 0.145202 0.163958 0.158291 0.171194 0.166566 0.191092 0.184723 0.168376 0.163958 0.187203 0.181187 0.166566 0.160644 0.184723 0.176738 0.163958 0.158291 0.181187 0.173619 0.147623 0.142314 0.161451 0.154558 0.147007 0.141759 0.160644 0.153847 0.142314 0.136509 0.154558 0.147187 0.141759 0.136017 0.153847 0.14657 0.161451 0.154558 0.177813 0.168714 0.160644 0.153847 0.176738 0.167791 0.154558 0.147187 0.168714 0.159237 0.153847 0.14657 0.167791 0.158457 0.147007 0.141759 0.160644 0.153847 0.145202 0.140131 0.158291 0.15177 0.141759 0.136017 0.153847 0.14657 0.140131 0.134573 0.15177 0.144765 0.160644 0.153847 0.176738 0.167791 0.158291 0.15177 0.173619 0.165105 0.153847 0.14657 0.167791 0.158457 0.15177 0.144765 0.165105 0.156182 0.136509 0.130457 0.147187 0.13967 0.136017 0.130026 0.14657 0.139142 0.130457 0.124358 0.13967 0.132257 0.130026 0.123984 0.139142 0.131808 0.147187 0.13967 0.159237 0.149825 0.14657 0.139142 0.158457 0.149173 0.13967 0.132257 0.149825 0.140774 0.139142 0.131808 0.149173 0.140232 0.136017 0.130026 0.14657 0.139142 0.134573 0.128759 0.144765 0.137592 0.130026 0.123984 0.139142 0.131808 0.128759 0.122882 0.137592 0.130486 0.14657 0.139142 0.158457 0.149173 0.144765 0.137592 0.156182 0.147268 0.139142 0.131808 0.149173 0.140232 0.137592 0.130486 0.147268 0.138644 0.124358 0.118358 0.132257 0.125108 0.123984 0.118036 0.131808 0.124728 0.118358 0.112473 0.125108 0.118358 0.118036 0.112197 0.124728 0.118036 0.132257 0.125108 0.140774 0.132257 0.131808 0.124728 0.140232 0.131808 0.125108 0.118358 0.132257 0.124358 0.124728 0.118036 0.131808 0.123984 0.123984 0.118036 0.131808 0.124728 0.122882 0.117083 0.130486 0.123605 0.118036 0.112197 0.124728 0.118036 0.117083 0.11138 0.123605 0.117083 0.131808 0.124728 0.140232 0.131808 0.130486 0.123605 0.138644 0.130486 0.124728 0.118036 0.131808 0.123984 0.123605 0.117083 0.130486 0.122882 0.124358 0.132257 0.130457 0.13967 0.123984 0.131808 0.130026 0.139142 0.132257 0.140774 0.13967 0.149825 0.131808 0.140232 0.139142 0.149173 0.130457 0.13967 0.136509 0.147187 0.130026 0.139142 0.136017 0.14657 0.13967 0.149825 0.147187 0.159237 0.139142 0.149173 0.14657 0.158457 0.123984 0.131808 0.130026 0.139142 0.122882 0.130486 0.128759 0.137592 0.131808 0.140232 0.139142 0.149173 0.130486 0.138644 0.137592 0.147268 0.130026 0.139142 0.136017 0.14657 0.128759 0.137592 0.134572 0.144765 0.139142 0.149173 0.14657 0.158457 0.137592 0.147268 0.144765 0.156182 0.140774 0.149825 0.149825 0.160899 0.140232 0.149173 0.149173 0.160094 0.149825 0.159237 0.160899 0.17276 0.149173 0.158457 0.160094 0.171766 0.149825 0.160899 0.159237 0.17276 0.149173 0.160094 0.158457 0.171766 0.160899 0.17276 0.17276 0.187751 0.160094 0.171766 0.171766 0.186479 0.140232 0.149173 0.149173 0.160094 0.138644 0.147268 0.147268 0.157746 0.149173 0.158457 0.160094 0.171766 0.147268 0.156182 0.157746 0.168881 0.149173 0.160094 0.158457 0.171766 0.147268 0.157746 0.156182 0.168881 0.160094 0.171766 0.171766 0.186479 0.157746 0.168881 0.168881 0.182806 0.159237 0.168714 0.17276 0.185096 0.158457 0.167791 0.171766 0.183879 0.168714 0.177813 0.185096 0.197337 0.167791 0.176738 0.183879 0.195873 0.17276 0.185096 0.187751 0.203969 0.171766 0.183879 0.186479 0.202347 0.185096 0.197337 0.203969 0.220772 0.183879 0.195873 0.202347 0.218729 0.158457 0.167791 0.171766 0.183879 0.156182 0.165105 0.168881 0.180362 0.167791 0.176738 0.183879 0.195873 0.165105 0.173619 0.180362 0.191657 0.171766 0.183879 0.186479 0.202347 0.168881 0.180362 0.182806 0.19769 0.183879 0.195873 0.202347 0.218729 0.180362 0.191657 0.19769 0.21291 0.177813 0.185945 0.197337 0.20863 0.176738 0.184723 0.195873 0.206913 0.185945 0.192439 0.20863 0.217892 0.184723 0.191092 0.206913 0.215956 0.197337 0.20863 0.220772 0.236935 0.195873 0.206913 0.218729 0.234448 0.20863 0.217892 0.236935 0.250714 0.206913 0.215956 0.234448 0.247786 0.176738 0.184723 0.195873 0.206913 0.173619 0.181187 0.191657 0.201992 0.184723 0.191092 0.206913 0.215956 0.181187 0.187203 0.201992 0.210413 0.195873 0.206913 0.218729 0.234448 0.191657 0.201992 0.21291 0.227378 0.206913 0.215956 0.234448 0.247786 0.201992 0.210413 0.227378 0.239571 0.192439 0.19665 0.217892 0.224025 0.191092 0.19522 0.215956 0.221928 0.19665 0.198112 0.224025 0.226168 0.19522 0.19665 0.221928 0.224025 0.217892 0.224025 0.250714 0.260054 0.215956 0.221928 0.247786 0.256861 0.224025 0.226168 0.260054 0.263418 0.221928 0.224025 0.256861 0.260056 0.191092 0.19522 0.215956 0.221928 0.187203 0.191092 0.210413 0.215958 0.19522 0.19665 0.221928 0.224025 0.191092 0.19244 0.215958 0.217895 0.215956 0.221928 0.247786 0.256861 0.210413 0.215958 0.239571 0.247791 0.221928 0.224025 0.256861 0.260056 0.215958 0.217895 0.247791 0.250721 0.198112 0.19665 0.226168 0.224025 0.19665 0.19522 0.224025 0.221928 0.19665 0.192439 0.224025 0.217892 0.19522 0.191092 0.221928 0.215956 0.226168 0.224025 0.263418 0.260054 0.224025 0.221928 0.260056 0.256861 0.224025 0.217892 0.260054 0.250714 0.221928 0.215956 0.256861 0.247786 0.19665 0.19522 0.224025 0.221928 0.19244 0.191092 0.217895 0.215958 0.19522 0.191092 0.221928 0.215956 0.191092 0.187203 0.215958 0.210413 0.224025 0.221928 0.260056 0.256861 0.217895 0.215958 0.250721 0.247791 0.221928 0.215956 0.256861 0.247786 0.215958 0.210413 0.247791 0.239571 0.192439 0.185945 0.217892 0.20863 0.191092 0.184723 0.215956 0.206913 0.185945 0.177813 0.20863 0.197337 0.184723 0.176738 0.206913 0.195873 0.217892 0.20863 0.250714 0.236935 0.215956 0.206913 0.247786 0.234448 0.20863 0.197337 0.236935 0.220772 0.206913 0.195873 0.234448 0.218729 0.191092 0.184723 0.215956 0.206913 0.187203 0.181187 0.210413 0.201992 0.184723 0.176738 0.206913 0.195873 0.181187 0.173619 0.201992 0.191657 0.215956 0.206913 0.247786 0.234448 0.210413 0.201992 0.239571 0.227378 0.206913 0.195873 0.234448 0.218729 0.201992 0.191657 0.227378 0.212911 0.177813 0.168714 0.197337 0.185096 0.176738 0.167791 0.195873 0.183879 0.168714 0.159237 0.185096 0.17276 0.167791 0.158457 0.183879 0.171766 0.197337 0.185096 0.220772 0.203969 0.195873 0.183879 0.218729 0.202347 0.185096 0.17276 0.203969 0.187751 0.183879 0.171766 0.202347 0.186479 0.176738 0.167791 0.195873 0.183879 0.173619 0.165105 0.191657 0.180362 0.167791 0.158457 0.183879 0.171766 0.165105 0.156182 0.180362 0.168881 0.195873 0.183879 0.218729 0.202347 0.191657 0.180362 0.212911 0.19769 0.183879 0.171766 0.202347 0.186479 0.180362 0.168881 0.19769 0.182806 0.159237 0.149825 0.17276 0.160899 0.158457 0.149173 0.171766 0.160094 0.149825 0.140774 0.160899 0.149825 0.149173 0.140232 0.160094 0.149173 0.17276 0.160899 0.187751 0.17276 0.171766 0.160094 0.186479 0.171766 0.160899 0.149825 0.17276 0.159237 0.160094 0.149173 0.171766 0.158457 0.158457 0.149173 0.171766 0.160094 0.156182 0.147268 0.168881 0.157746 0.149173 0.140232 0.160094 0.149173 0.147268 0.138644 0.157746 0.147268 0.171766 0.160094 0.186479 0.171766 0.168881 0.157746 0.182806 0.168881 0.160094 0.149173 0.171766 0.158457 0.157746 0.147268 0.168881 0.156182 0.140774 0.132257 0.149825 0.13967 0.140232 0.131808 0.149173 0.139142 0.132257 0.124358 0.13967 0.130457 0.131808 0.123984 0.139142 0.130026 0.149825 0.13967 0.159237 0.147187 0.149173 0.139142 0.158457 0.14657 0.13967 0.130457 0.147187 0.136509 0.139142 0.130026 0.14657 0.136017 0.140232 0.131808 0.149173 0.139142 0.138644 0.130486 0.147268 0.137592 0.131808 0.123984 0.139142 0.130026 0.130486 0.122882 0.137592 0.128759 0.149173 0.139142 0.158457 0.14657 0.147268 0.137592 0.156182 0.144765 0.139142 0.130026 0.14657 0.136017 0.137592 0.128759 0.144765 0.134573 0.136509 0.147187 0.142314 0.154558 0.136017 0.14657 0.141759 0.153847 0.147187 0.159237 0.154558 0.168714 0.14657 0.158457 0.153847 0.167791 0.142314 0.154558 0.147623 0.161451 0.141759 0.153847 0.147007 0.160644 0.154558 0.168714 0.161451 0.177813 0.153847 0.167791 0.160644 0.176738 0.136017 0.14657 0.141759 0.153847 0.134572 0.144765 0.140131 0.15177 0.14657 0.158457 0.153847 0.167791 0.144765 0.156182 0.15177 0.165105 0.141759 0.153847 0.147007 0.160644 0.140131 0.15177 0.145202 0.158291 0.153847 0.167791 0.160644 0.176738 0.15177 0.165105 0.158291 0.173619 0.159237 0.17276 0.168714 0.185096 0.158457 0.171766 0.167791 0.183879 0.17276 0.187751 0.185096 0.203969 0.171766 0.186479 0.183879 0.202347 0.168714 0.185096 0.177813 0.197337 0.167791 0.183879 0.176738 0.195873 0.185096 0.203969 0.197337 0.220772 0.183879 0.202347 0.195873 0.218729 0.158457 0.171766 0.167791 0.183879 0.156182 0.168881 0.165105 0.180362 0.171766 0.186479 0.183879 0.202347 0.168881 0.182806 0.180362 0.19769 0.167791 0.183879 0.176738 0.195873 0.165105 0.180362 0.173619 0.191657 0.183879 0.202347 0.195873 0.218729 0.180362 0.19769 0.191657 0.21291 0.187751 0.203969 0.203969 0.225403 0.186479 0.202347 0.202347 0.223219 0.203969 0.220772 0.225403 0.248869 0.202347 0.218729 0.223219 0.245974 0.203969 0.225403 0.220772 0.248869 0.202347 0.223219 0.218729 0.245974 0.225403 0.248869 0.248869 0.282094 0.223219 0.245974 0.245974 0.277834 0.186479 0.202347 0.202347 0.223219 0.182806 0.19769 0.19769 0.217021 0.202347 0.218729 0.223219 0.245974 0.19769 0.21291 0.217021 0.237786 0.202347 0.223219 0.218729 0.245974 0.19769 0.217021 0.21291 0.237786 0.223219 0.245974 0.245974 0.277834 0.217021 0.237786 0.237786 0.266197 0.220772 0.236935 0.248869 0.272866 0.218729 0.234448 0.245974 0.269064 0.236935 0.250714 0.272866 0.294312 0.234448 0.247786 0.269064 0.289765 0.248869 0.272866 0.282094 0.318716 0.245974 0.269064 0.277834 0.312954 0.272866 0.294312 0.318716 0.355012 0.269064 0.289765 0.312954 0.346628 0.218729 0.234448 0.245974 0.269064 0.21291 0.227378 0.237786 0.258566 0.234448 0.247786 0.269064 0.289765 0.227378 0.239571 0.258566 0.276902 0.245974 0.269064 0.277834 0.312954 0.237786 0.258566 0.266197 0.296714 0.269064 0.289765 0.312954 0.346628 0.258566 0.276902 0.296714 0.325583 0.250714 0.260054 0.294312 0.309696 0.247786 0.256861 0.289765 0.304246 0.260054 0.263418 0.309696 0.315008 0.256861 0.260056 0.304246 0.3097 0.294312 0.309696 0.355012 0.38101 0.289765 0.304246 0.346628 0.372567 0.309696 0.315008 0.38101 0.392706 0.304246 0.3097 0.372567 0.381023 0.247786 0.256861 0.289765 0.304246 0.239571 0.247791 0.276902 0.289775 0.256861 0.260056 0.304246 0.3097 0.247791 0.250721 0.289775 0.294327 0.289765 0.304246 0.346628 0.372567 0.276902 0.289775 0.325583 0.346653 0.304246 0.3097 0.372567 0.381023 0.289775 0.294327 0.346653 0.355044 0.263418 0.260054 0.315008 0.309696 0.260056 0.256861 0.3097 0.304246 0.260054 0.250714 0.309696 0.294312 0.256861 0.247786 0.304246 0.289765 0.315008 0.309696 0.392706 0.38101 0.3097 0.304246 0.381023 0.372567 0.309696 0.294312 0.38101 0.355012 0.304246 0.289765 0.372567 0.346628 0.260056 0.256861 0.3097 0.304246 0.250721 0.247791 0.294327 0.289775 0.256861 0.247786 0.304246 0.289765 0.247791 0.239571 0.289775 0.276902 0.3097 0.304246 0.381023 0.372567 0.294327 0.289775 0.355044 0.346653 0.304246 0.289765 0.372567 0.346628 0.289775 0.276902 0.346653 0.325583 0.250714 0.236935 0.294312 0.272866 0.247786 0.234448 0.289765 0.269064 0.236935 0.220772 0.272866 0.248869 0.234448 0.218729 0.269064 0.245974 0.294312 0.272866 0.355012 0.318716 0.289765 0.269064 0.346628 0.312954 0.272866 0.248869 0.318716 0.282094 0.269064 0.245974 0.312954 0.277834 0.247786 0.234448 0.289765 0.269064 0.239571 0.227378 0.276902 0.258566 0.234448 0.218729 0.269064 0.245974 0.227378 0.212911 0.258566 0.237786 0.289765 0.269064 0.346628 0.312954 0.276902 0.258566 0.325583 0.296714 0.269064 0.245974 0.312954 0.277834 0.258566 0.237786 0.296714 0.266197 0.220772 0.203969 0.248869 0.225403 0.218729 0.202347 0.245974 0.223219 0.203969 0.187751 0.225403 0.203969 0.202347 0.186479 0.223219 0.202347 0.248869 0.225403 0.282094 0.248869 0.245974 0.223219 0.277834 0.245974 0.225403 0.203969 0.248869 0.220772 0.223219 0.202347 0.245974 0.218729 0.218729 0.202347 0.245974 0.223219 0.212911 0.19769 0.237786 0.217021 0.202347 0.186479 0.223219 0.202347 0.19769 0.182806 0.217021 0.19769 0.245974 0.223219 0.277834 0.245974 0.237786 0.217021 0.266197 0.237786 0.223219 0.202347 0.245974 0.218729 0.217021 0.19769 0.237786 0.212911 0.187751 0.17276 0.203969 0.185096 0.186479 0.171766 0.202347 0.183879 0.17276 0.159237 0.185096 0.168714 0.171766 0.158457 0.183879 0.167791 0.203969 0.185096 0.220772 0.197337 0.202347 0.183879 0.218729 0.195873 0.185096 0.168714 0.197337 0.177813 0.183879 0.167791 0.195873 0.176738 0.186479 0.171766 0.202347 0.183879 0.182806 0.168881 0.19769 0.180362 0.171766 0.158457 0.183879 0.167791 0.168881 0.156182 0.180362 0.165105 0.202347 0.183879 0.218729 0.195873 0.19769 0.180362 0.212911 0.191657 0.183879 0.167791 0.195873 0.176738 0.180362 0.165105 0.191657 0.173619 0.159237 0.147187 0.168714 0.154558 0.158457 0.14657 0.167791 0.153847 0.147187 0.136509 0.154558 0.142314 0.14657 0.136017 0.153847 0.141759 0.168714 0.154558 0.177813 0.161451 0.167791 0.153847 0.176738 0.160644 0.154558 0.142314 0.161451 0.147623 0.153847 0.141759 0.160644 0.147007 0.158457 0.14657 0.167791 0.153847 0.156182 0.144765 0.165105 0.15177 0.14657 0.136017 0.153847 0.141759 0.144765 0.134573 0.15177 0.140131 0.167791 0.153847 0.176738 0.160644 0.165105 0.15177 0.173619 0.158291 0.153847 0.141759 0.160644 0.147007 0.15177 0.140131 0.158291 0.145202 0.147623 0.161451 0.152159 0.167462 0.147007 0.160644 0.151488 0.166566 0.161451 0.177813 0.167462 0.185945 0.160644 0.176738 0.166566 0.184723 0.152159 0.167462 0.155645 0.172163 0.151488 0.166566 0.15493 0.171194 0.167462 0.185945 0.172163 0.192439 0.166566 0.184723 0.171194 0.191092 0.147007 0.160644 0.151488 0.166566 0.145202 0.158291 0.149523 0.163958 0.160644 0.176738 0.166566 0.184723 0.158291 0.173619 0.163958 0.181187 0.151488 0.166566 0.15493 0.171194 0.149523 0.163958 0.152838 0.168376 0.166566 0.184723 0.171194 0.191092 0.163958 0.181187 0.168376 0.187203 0.177813 0.197337 0.185945 0.20863 0.176738 0.195873 0.184723 0.206913 0.197337 0.220772 0.20863 0.236935 0.195873 0.218729 0.206913 0.234448 0.185945 0.20863 0.192439 0.217892 0.184723 0.206913 0.191092 0.215956 0.20863 0.236935 0.217892 0.250714 0.206913 0.234448 0.215956 0.247786 0.176738 0.195873 0.184723 0.206913 0.173619 0.191657 0.181187 0.201992 0.195873 0.218729 0.206913 0.234448 0.191657 0.21291 0.201992 0.227378 0.184723 0.206913 0.191092 0.215956 0.181187 0.201992 0.187203 0.210413 0.206913 0.234448 0.215956 0.247786 0.201992 0.227378 0.210413 0.239571 0.220772 0.248869 0.236935 0.272866 0.218729 0.245974 0.234448 0.269064 0.248869 0.282094 0.272866 0.318716 0.245974 0.277834 0.269064 0.312954 0.236935 0.272866 0.250714 0.294312 0.234448 0.269064 0.247786 0.289765 0.272866 0.318716 0.294312 0.355012 0.269064 0.312954 0.289765 0.346628 0.218729 0.245974 0.234448 0.269064 0.21291 0.237786 0.227378 0.258566 0.245974 0.277834 0.269064 0.312954 0.237786 0.266197 0.258566 0.296714 0.234448 0.269064 0.247786 0.289765 0.227378 0.258566 0.239571 0.276902 0.269064 0.312954 0.289765 0.346628 0.258566 0.296714 0.276902 0.325583 0.282094 0.318716 0.318716 0.37798 0.277834 0.312954 0.312954 0.367331 0.318716 0.355012 0.37798 0.439545 0.312954 0.346628 0.367331 0.427607 0.318716 0.37798 0.355012 0.439545 0.312954 0.367331 0.346628 0.427607 0.37798 0.439545 0.439545 0.58395 0.367331 0.427607 0.427607 0.538282 0.277834 0.312954 0.312954 0.367331 0.266197 0.296714 0.296714 0.341723 0.312954 0.346628 0.367331 0.427607 0.296714 0.325583 0.341723 0.38903 0.312954 0.367331 0.346628 0.427607 0.296714 0.341723 0.325583 0.38903 0.367331 0.427607 0.427607 0.538282 0.341723 0.38903 0.38903 0.466401 0.355012 0.38101 0.439545 0.499648 0.346628 0.372567 0.427607 0.47357 0.38101 0.392706 0.499648 0.509634 0.372567 0.381023 0.47357 0.499658 0.439545 0.499648 0.58395 0.666302 0.427607 0.47357 0.538282 0.662396 0.499648 0.509634 0.666302 0.805678 0.47357 0.499658 0.662396 0.66663 0.346628 0.372567 0.427607 0.47357 0.325583 0.346653 0.38903 0.427669 0.372567 0.381023 0.47357 0.499658 0.346653 0.355044 0.427669 0.439658 0.427607 0.47357 0.538282 0.662396 0.38903 0.427669 0.466401 0.538482 0.47357 0.499658 0.662396 0.666