<?xml version="1.0" ?> 
<!-- 
# vtk DataFile Version 3.0
#This file was generated by the deal.II library on 16:40:01 at 2019/11/27
-->
<VTKFile type="UnstructuredGrid" version="0.1" byte_order="LittleEndian">
<UnstructuredGrid>
<Piece NumberOfPoints="76208" NumberOfCells="9526" >
  <Points>
    <DataArray type="Float32" NumberOfComponents="3" format="ascii">
-100 -100 0
-90 -100 0
-100 -90 0
-90 -90 0
-100 -100 10
-90 -100 10
-100 -90 10
-90 -90 10
-90 -100 0
-80 -100 0
-90 -90 0
-80 -90 0
-90 -100 10
-80 -100 10
-90 -90 10
-80 -90 10
-100 -90 0
-90 -90 0
-100 -80 0
-90 -80 0
-100 -90 10
-90 -90 10
-100 -80 10
-90 -80 10
-90 -90 0
-80 -90 0
-90 -80 0
-80 -80 0
-90 -90 10
-80 -90 10
-90 -80 10
-80 -80 10
-100 -100 10
-90 -100 10
-100 -90 10
-90 -90 10
-100 -100 20
-90 -100 20
-100 -90 20
-90 -90 20
-90 -100 10
-80 -100 10
-90 -90 10
-80 -90 10
-90 -100 20
-80 -100 20
-90 -90 20
-80 -90 20
-100 -90 10
-90 -90 10
-100 -80 10
-90 -80 10
-100 -90 20
-90 -90 20
-100 -80 20
-90 -80 20
-90 -90 10
-80 -90 10
-90 -80 10
-80 -80 10
-90 -90 20
-80 -90 20
-90 -80 20
-80 -80 20
-80 -100 0
-70 -100 0
-80 -90 0
-70 -90 0
-80 -100 10
-70 -100 10
-80 -90 10
-70 -90 10
-70 -100 0
-60 -100 0
-70 -90 0
-60 -90 0
-70 -100 10
-60 -100 10
-70 -90 10
-60 -90 10
-80 -90 0
-70 -90 0
-80 -80 0
-70 -80 0
-80 -90 10
-70 -90 10
-80 -80 10
-70 -80 10
-70 -90 0
-60 -90 0
-70 -80 0
-60 -80 0
-70 -90 10
-60 -90 10
-70 -80 10
-60 -80 10
-80 -100 10
-70 -100 10
-80 -90 10
-70 -90 10
-80 -100 20
-70 -100 20
-80 -90 20
-70 -90 20
-70 -100 10
-60 -100 10
-70 -90 10
-60 -90 10
-70 -100 20
-60 -100 20
-70 -90 20
-60 -90 20
-80 -90 10
-70 -90 10
-80 -80 10
-70 -80 10
-80 -90 20
-70 -90 20
-80 -80 20
-70 -80 20
-70 -90 10
-60 -90 10
-70 -80 10
-60 -80 10
-70 -90 20
-60 -90 20
-70 -80 20
-60 -80 20
-60 -100 0
-50 -100 0
-60 -90 0
-50 -90 0
-60 -100 10
-50 -100 10
-60 -90 10
-50 -90 10
-50 -100 0
-40 -100 0
-50 -90 0
-40 -90 0
-50 -100 10
-40 -100 10
-50 -90 10
-40 -90 10
-60 -90 0
-50 -90 0
-60 -80 0
-50 -80 0
-60 -90 10
-50 -90 10
-60 -80 10
-50 -80 10
-50 -90 0
-40 -90 0
-50 -80 0
-40 -80 0
-50 -90 10
-40 -90 10
-50 -80 10
-40 -80 10
-60 -100 10
-50 -100 10
-60 -90 10
-50 -90 10
-60 -100 20
-50 -100 20
-60 -90 20
-50 -90 20
-50 -100 10
-40 -100 10
-50 -90 10
-40 -90 10
-50 -100 20
-40 -100 20
-50 -90 20
-40 -90 20
-60 -90 10
-50 -90 10
-60 -80 10
-50 -80 10
-60 -90 20
-50 -90 20
-60 -80 20
-50 -80 20
-50 -90 10
-40 -90 10
-50 -80 10
-40 -80 10
-50 -90 20
-40 -90 20
-50 -80 20
-40 -80 20
-40 -100 0
-30 -100 0
-40 -90 0
-30 -90 0
-40 -100 10
-30 -100 10
-40 -90 10
-30 -90 10
-30 -100 0
-20 -100 0
-30 -90 0
-20 -90 0
-30 -100 10
-20 -100 10
-30 -90 10
-20 -90 10
-40 -90 0
-30 -90 0
-40 -80 0
-30 -80 0
-40 -90 10
-30 -90 10
-40 -80 10
-30 -80 10
-30 -90 0
-20 -90 0
-30 -80 0
-20 -80 0
-30 -90 10
-20 -90 10
-30 -80 10
-20 -80 10
-40 -100 10
-30 -100 10
-40 -90 10
-30 -90 10
-40 -100 20
-30 -100 20
-40 -90 20
-30 -90 20
-30 -100 10
-20 -100 10
-30 -90 10
-20 -90 10
-30 -100 20
-20 -100 20
-30 -90 20
-20 -90 20
-40 -90 10
-30 -90 10
-40 -80 10
-30 -80 10
-40 -90 20
-30 -90 20
-40 -80 20
-30 -80 20
-30 -90 10
-20 -90 10
-30 -80 10
-20 -80 10
-30 -90 20
-20 -90 20
-30 -80 20
-20 -80 20
-20 -100 0
-10 -100 0
-20 -90 0
-10 -90 0
-20 -100 10
-10 -100 10
-20 -90 10
-10 -90 10
-10 -100 0
0 -100 0
-10 -90 0
0 -90 0
-10 -100 10
0 -100 10
-10 -90 10
0 -90 10
-20 -90 0
-10 -90 0
-20 -80 0
-10 -80 0
-20 -90 10
-10 -90 10
-20 -80 10
-10 -80 10
-10 -90 0
0 -90 0
-10 -80 0
0 -80 0
-10 -90 10
0 -90 10
-10 -80 10
0 -80 10
-20 -100 10
-10 -100 10
-20 -90 10
-10 -90 10
-20 -100 20
-10 -100 20
-20 -90 20
-10 -90 20
-10 -100 10
0 -100 10
-10 -90 10
0 -90 10
-10 -100 20
0 -100 20
-10 -90 20
0 -90 20
-20 -90 10
-10 -90 10
-20 -80 10
-10 -80 10
-20 -90 20
-10 -90 20
-20 -80 20
-10 -80 20
-10 -90 10
0 -90 10
-10 -80 10
0 -80 10
-10 -90 20
0 -90 20
-10 -80 20
0 -80 20
0 -100 0
10 -100 0
0 -90 0
10 -90 0
0 -100 10
10 -100 10
0 -90 10
10 -90 10
10 -100 0
20 -100 0
10 -90 0
20 -90 0
10 -100 10
20 -100 10
10 -90 10
20 -90 10
0 -90 0
10 -90 0
0 -80 0
10 -80 0
0 -90 10
10 -90 10
0 -80 10
10 -80 10
10 -90 0
20 -90 0
10 -80 0
20 -80 0
10 -90 10
20 -90 10
10 -80 10
20 -80 10
0 -100 10
10 -100 10
0 -90 10
10 -90 10
0 -100 20
10 -100 20
0 -90 20
10 -90 20
10 -100 10
20 -100 10
10 -90 10
20 -90 10
10 -100 20
20 -100 20
10 -90 20
20 -90 20
0 -90 10
10 -90 10
0 -80 10
10 -80 10
0 -90 20
10 -90 20
0 -80 20
10 -80 20
10 -90 10
20 -90 10
10 -80 10
20 -80 10
10 -90 20
20 -90 20
10 -80 20
20 -80 20
20 -100 0
30 -100 0
20 -90 0
30 -90 0
20 -100 10
30 -100 10
20 -90 10
30 -90 10
30 -100 0
40 -100 0
30 -90 0
40 -90 0
30 -100 10
40 -100 10
30 -90 10
40 -90 10
20 -90 0
30 -90 0
20 -80 0
30 -80 0
20 -90 10
30 -90 10
20 -80 10
30 -80 10
30 -90 0
40 -90 0
30 -80 0
40 -80 0
30 -90 10
40 -90 10
30 -80 10
40 -80 10
20 -100 10
30 -100 10
20 -90 10
30 -90 10
20 -100 20
30 -100 20
20 -90 20
30 -90 20
30 -100 10
40 -100 10
30 -90 10
40 -90 10
30 -100 20
40 -100 20
30 -90 20
40 -90 20
20 -90 10
30 -90 10
20 -80 10
30 -80 10
20 -90 20
30 -90 20
20 -80 20
30 -80 20
30 -90 10
40 -90 10
30 -80 10
40 -80 10
30 -90 20
40 -90 20
30 -80 20
40 -80 20
40 -100 0
50 -100 0
40 -90 0
50 -90 0
40 -100 10
50 -100 10
40 -90 10
50 -90 10
50 -100 0
60 -100 0
50 -90 0
60 -90 0
50 -100 10
60 -100 10
50 -90 10
60 -90 10
40 -90 0
50 -90 0
40 -80 0
50 -80 0
40 -90 10
50 -90 10
40 -80 10
50 -80 10
50 -90 0
60 -90 0
50 -80 0
60 -80 0
50 -90 10
60 -90 10
50 -80 10
60 -80 10
40 -100 10
50 -100 10
40 -90 10
50 -90 10
40 -100 20
50 -100 20
40 -90 20
50 -90 20
50 -100 10
60 -100 10
50 -90 10
60 -90 10
50 -100 20
60 -100 20
50 -90 20
60 -90 20
40 -90 10
50 -90 10
40 -80 10
50 -80 10
40 -90 20
50 -90 20
40 -80 20
50 -80 20
50 -90 10
60 -90 10
50 -80 10
60 -80 10
50 -90 20
60 -90 20
50 -80 20
60 -80 20
60 -100 0
70 -100 0
60 -90 0
70 -90 0
60 -100 10
70 -100 10
60 -90 10
70 -90 10
70 -100 0
80 -100 0
70 -90 0
80 -90 0
70 -100 10
80 -100 10
70 -90 10
80 -90 10
60 -90 0
70 -90 0
60 -80 0
70 -80 0
60 -90 10
70 -90 10
60 -80 10
70 -80 10
70 -90 0
80 -90 0
70 -80 0
80 -80 0
70 -90 10
80 -90 10
70 -80 10
80 -80 10
60 -100 10
70 -100 10
60 -90 10
70 -90 10
60 -100 20
70 -100 20
60 -90 20
70 -90 20
70 -100 10
80 -100 10
70 -90 10
80 -90 10
70 -100 20
80 -100 20
70 -90 20
80 -90 20
60 -90 10
70 -90 10
60 -80 10
70 -80 10
60 -90 20
70 -90 20
60 -80 20
70 -80 20
70 -90 10
80 -90 10
70 -80 10
80 -80 10
70 -90 20
80 -90 20
70 -80 20
80 -80 20
80 -100 0
90 -100 0
80 -90 0
90 -90 0
80 -100 10
90 -100 10
80 -90 10
90 -90 10
90 -100 0
100 -100 0
90 -90 0
100 -90 0
90 -100 10
100 -100 10
90 -90 10
100 -90 10
80 -90 0
90 -90 0
80 -80 0
90 -80 0
80 -90 10
90 -90 10
80 -80 10
90 -80 10
90 -90 0
100 -90 0
90 -80 0
100 -80 0
90 -90 10
100 -90 10
90 -80 10
100 -80 10
80 -100 10
90 -100 10
80 -90 10
90 -90 10
80 -100 20
90 -100 20
80 -90 20
90 -90 20
90 -100 10
100 -100 10
90 -90 10
100 -90 10
90 -100 20
100 -100 20
90 -90 20
100 -90 20
80 -90 10
90 -90 10
80 -80 10
90 -80 10
80 -90 20
90 -90 20
80 -80 20
90 -80 20
90 -90 10
100 -90 10
90 -80 10
100 -80 10
90 -90 20
100 -90 20
90 -80 20
100 -80 20
-100 -80 0
-90 -80 0
-100 -70 0
-90 -70 0
-100 -80 10
-90 -80 10
-100 -70 10
-90 -70 10
-90 -80 0
-80 -80 0
-90 -70 0
-80 -70 0
-90 -80 10
-80 -80 10
-90 -70 10
-80 -70 10
-100 -70 0
-90 -70 0
-100 -60 0
-90 -60 0
-100 -70 10
-90 -70 10
-100 -60 10
-90 -60 10
-90 -70 0
-80 -70 0
-90 -60 0
-80 -60 0
-90 -70 10
-80 -70 10
-90 -60 10
-80 -60 10
-100 -80 10
-90 -80 10
-100 -70 10
-90 -70 10
-100 -80 20
-90 -80 20
-100 -70 20
-90 -70 20
-90 -80 10
-80 -80 10
-90 -70 10
-80 -70 10
-90 -80 20
-80 -80 20
-90 -70 20
-80 -70 20
-100 -70 10
-90 -70 10
-100 -60 10
-90 -60 10
-100 -70 20
-90 -70 20
-100 -60 20
-90 -60 20
-90 -70 10
-80 -70 10
-90 -60 10
-80 -60 10
-90 -70 20
-80 -70 20
-90 -60 20
-80 -60 20
-80 -80 0
-70 -80 0
-80 -70 0
-70 -70 0
-80 -80 10
-70 -80 10
-80 -70 10
-70 -70 10
-70 -80 0
-60 -80 0
-70 -70 0
-60 -70 0
-70 -80 10
-60 -80 10
-70 -70 10
-60 -70 10
-80 -70 0
-70 -70 0
-80 -60 0
-70 -60 0
-80 -70 10
-70 -70 10
-80 -60 10
-70 -60 10
-70 -70 0
-60 -70 0
-70 -60 0
-60 -60 0
-70 -70 10
-60 -70 10
-70 -60 10
-60 -60 10
-80 -80 10
-70 -80 10
-80 -70 10
-70 -70 10
-80 -80 20
-70 -80 20
-80 -70 20
-70 -70 20
-70 -80 10
-60 -80 10
-70 -70 10
-60 -70 10
-70 -80 20
-60 -80 20
-70 -70 20
-60 -70 20
-80 -70 10
-70 -70 10
-80 -60 10
-70 -60 10
-80 -70 20
-70 -70 20
-80 -60 20
-70 -60 20
-70 -70 10
-60 -70 10
-70 -60 10
-60 -60 10
-70 -70 20
-60 -70 20
-70 -60 20
-60 -60 20
-60 -80 0
-50 -80 0
-60 -70 0
-50 -70 0
-60 -80 10
-50 -80 10
-60 -70 10
-50 -70 10
-50 -80 0
-40 -80 0
-50 -70 0
-40 -70 0
-50 -80 10
-40 -80 10
-50 -70 10
-40 -70 10
-60 -70 0
-50 -70 0
-60 -60 0
-50 -60 0
-60 -70 10
-50 -70 10
-60 -60 10
-50 -60 10
-50 -70 0
-40 -70 0
-50 -60 0
-40 -60 0
-50 -70 10
-40 -70 10
-50 -60 10
-40 -60 10
-60 -80 10
-50 -80 10
-60 -70 10
-50 -70 10
-60 -80 20
-50 -80 20
-60 -70 20
-50 -70 20
-50 -80 10
-40 -80 10
-50 -70 10
-40 -70 10
-50 -80 20
-40 -80 20
-50 -70 20
-40 -70 20
-60 -70 10
-50 -70 10
-60 -60 10
-50 -60 10
-60 -70 20
-50 -70 20
-60 -60 20
-50 -60 20
-50 -70 10
-40 -70 10
-50 -60 10
-40 -60 10
-50 -70 20
-40 -70 20
-50 -60 20
-40 -60 20
-40 -80 0
-30 -80 0
-40 -70 0
-30 -70 0
-40 -80 10
-30 -80 10
-40 -70 10
-30 -70 10
-30 -80 0
-20 -80 0
-30 -70 0
-20 -70 0
-30 -80 10
-20 -80 10
-30 -70 10
-20 -70 10
-40 -70 0
-30 -70 0
-40 -60 0
-30 -60 0
-40 -70 10
-30 -70 10
-40 -60 10
-30 -60 10
-30 -70 0
-20 -70 0
-30 -60 0
-20 -60 0
-30 -70 10
-20 -70 10
-30 -60 10
-20 -60 10
-40 -80 10
-30 -80 10
-40 -70 10
-30 -70 10
-40 -80 20
-30 -80 20
-40 -70 20
-30 -70 20
-30 -80 10
-20 -80 10
-30 -70 10
-20 -70 10
-30 -80 20
-20 -80 20
-30 -70 20
-20 -70 20
-40 -70 10
-30 -70 10
-40 -60 10
-30 -60 10
-40 -70 20
-30 -70 20
-40 -60 20
-30 -60 20
-30 -70 10
-20 -70 10
-30 -60 10
-20 -60 10
-30 -70 20
-20 -70 20
-30 -60 20
-20 -60 20
-20 -80 0
-10 -80 0
-20 -70 0
-10 -70 0
-20 -80 10
-10 -80 10
-20 -70 10
-10 -70 10
-10 -80 0
0 -80 0
-10 -70 0
0 -70 0
-10 -80 10
0 -80 10
-10 -70 10
0 -70 10
[...]
  <PointData Scalars="scalars">
    <DataArray type="Float32" Name="u" format="ascii">
0.112359 0.11824 0.11824 0.124984 0.112081 0.117915 0.117915 0.1246 0.11824 0.124239 0.124984 0.13213 0.117915 0.123862 0.1246 0.131677 0.11824 0.124984 0.124239 0.13213 0.117915 0.1246 0.123862 0.131677 0.124984 0.13213 0.13213 0.140635 0.1246 0.131677 0.131677 0.14009 0.112081 0.117915 0.117915 0.1246 0.111259 0.116957 0.116957 0.123472 0.117915 0.123862 0.1246 0.131677 0.116957 0.122753 0.123472 0.130347 0.117915 0.1246 0.123862 0.131677 0.116957 0.123472 0.122753 0.130347 0.1246 0.131677 0.131677 0.14009 0.123472 0.130347 0.130347 0.138491 0.124239 0.13035 0.13213 0.139549 0.123862 0.129915 0.131677 0.139016 0.13035 0.136444 0.139549 0.147096 0.129915 0.135946 0.139016 0.146471 0.13213 0.139549 0.140635 0.149681 0.131677 0.139016 0.14009 0.149029 0.139549 0.147096 0.149681 0.159069 0.139016 0.146471 0.149029 0.158306 0.123862 0.129915 0.131677 0.139016 0.122753 0.128636 0.130347 0.137453 0.129915 0.135946 0.139016 0.146471 0.128636 0.13448 0.137453 0.144649 0.131677 0.139016 0.14009 0.149029 0.130347 0.137453 0.138491 0.147107 0.139016 0.146471 0.149029 0.158306 0.137453 0.144649 0.147107 0.156011 0.136444 0.142283 0.147096 0.154589 0.135946 0.14172 0.146471 0.153864 0.142283 0.147741 0.154589 0.161541 0.14172 0.147108 0.153864 0.160717 0.147096 0.154589 0.159069 0.168628 0.146471 0.153864 0.158306 0.167694 0.154589 0.161541 0.168628 0.177852 0.153864 0.160717 0.167694 0.176755 0.135946 0.14172 0.146471 0.153864 0.13448 0.140058 0.144649 0.151763 0.14172 0.147108 0.153864 0.160717 0.140058 0.145251 0.151763 0.158317 0.146471 0.153864 0.158306 0.167694 0.144649 0.151763 0.156011 0.164967 0.153864 0.160717 0.167694 0.176755 0.151763 0.158317 0.164967 0.173576 0.147741 0.152399 0.161541 0.167683 0.147108 0.151706 0.160717 0.166762 0.152399 0.15601 0.167683 0.172525 0.151706 0.155266 0.166762 0.171523 0.161541 0.167683 0.177852 0.186161 0.160717 0.166762 0.176755 0.184905 0.167683 0.172525 0.186161 0.192852 0.166762 0.171523 0.184905 0.191457 0.147108 0.151706 0.160717 0.166762 0.145251 0.14968 0.158317 0.164088 0.151706 0.155266 0.166762 0.171523 0.14968 0.153098 0.164088 0.168618 0.160717 0.166762 0.176755 0.184905 0.158317 0.164088 0.173576 0.18128 0.166762 0.171523 0.184905 0.191457 0.164088 0.168618 0.18128 0.187447 0.15601 0.158302 0.172525 0.175638 0.155266 0.157526 0.171523 0.174581 0.158302 0.159089 0.175638 0.176713 0.157526 0.158301 0.174581 0.175637 0.172525 0.175638 0.192852 0.197224 0.171523 0.174581 0.191457 0.195734 0.175638 0.176713 0.197224 0.198747 0.174581 0.175637 0.195734 0.197224 0.155266 0.157526 0.171523 0.174581 0.153098 0.155263 0.168618 0.171522 0.157526 0.158301 0.174581 0.175637 0.155263 0.156005 0.171522 0.172523 0.171523 0.174581 0.191457 0.195734 0.168618 0.171522 0.187447 0.191457 0.174581 0.175637 0.195734 0.197224 0.171522 0.172523 0.191457 0.192852 0.159089 0.158303 0.176713 0.175638 0.158301 0.157526 0.175637 0.174581 0.158303 0.15601 0.175638 0.172525 0.157526 0.155266 0.174581 0.171523 0.176713 0.175638 0.198747 0.197224 0.175637 0.174581 0.197224 0.195734 0.175638 0.172525 0.197224 0.192852 0.174581 0.171523 0.195734 0.191458 0.158301 0.157526 0.175637 0.174581 0.156005 0.155263 0.172523 0.171522 0.157526 0.155266 0.174581 0.171523 0.155263 0.153098 0.171522 0.168618 0.175637 0.174581 0.197224 0.195734 0.172523 0.171522 0.192852 0.191457 0.174581 0.171523 0.195734 0.191458 0.171522 0.168618 0.191457 0.187447 0.15601 0.152399 0.172525 0.167683 0.155266 0.151706 0.171523 0.166762 0.152399 0.147741 0.167683 0.161541 0.151706 0.147108 0.166762 0.160717 0.172525 0.167683 0.192852 0.186162 0.171523 0.166762 0.191458 0.184905 0.167683 0.161541 0.186162 0.177852 0.166762 0.160717 0.184905 0.176755 0.155266 0.151706 0.171523 0.166762 0.153098 0.14968 0.168618 0.164088 0.151706 0.147108 0.166762 0.160717 0.14968 0.145251 0.164088 0.158317 0.171523 0.166762 0.191458 0.184905 0.168618 0.164088 0.187447 0.18128 0.166762 0.160717 0.184905 0.176755 0.164088 0.158317 0.18128 0.173576 0.147741 0.142283 0.161541 0.154589 0.147108 0.14172 0.160717 0.153864 0.142283 0.136444 0.154589 0.147096 0.14172 0.135946 0.153864 0.146471 0.161541 0.154589 0.177852 0.168628 0.160717 0.153864 0.176755 0.167694 0.154589 0.147096 0.168628 0.159069 0.153864 0.146471 0.167694 0.158306 0.147108 0.14172 0.160717 0.153864 0.145251 0.140057 0.158317 0.151763 0.14172 0.135946 0.153864 0.146471 0.140057 0.13448 0.151763 0.144649 0.160717 0.153864 0.176755 0.167694 0.158317 0.151763 0.173576 0.164967 0.153864 0.146471 0.167694 0.158306 0.151763 0.144649 0.164967 0.156011 0.136444 0.13035 0.147096 0.139548 0.135946 0.129915 0.146471 0.139016 0.13035 0.124239 0.139548 0.13213 0.129915 0.123862 0.139016 0.131677 0.147096 0.139548 0.159069 0.149681 0.146471 0.139016 0.158306 0.149028 0.139548 0.13213 0.149681 0.140635 0.139016 0.131677 0.149028 0.14009 0.135946 0.129915 0.146471 0.139016 0.13448 0.128636 0.144649 0.137453 0.129915 0.123862 0.139016 0.131677 0.128636 0.122753 0.137453 0.130347 0.146471 0.139016 0.158306 0.149028 0.144649 0.137453 0.156011 0.147107 0.139016 0.131677 0.149028 0.14009 0.137453 0.130347 0.147107 0.138491 0.124239 0.118239 0.13213 0.124983 0.123862 0.117915 0.131677 0.1246 0.118239 0.112359 0.124983 0.118239 0.117915 0.112081 0.1246 0.117915 0.13213 0.124983 0.140635 0.13213 0.131677 0.1246 0.14009 0.131677 0.124983 0.118239 0.13213 0.124239 0.1246 0.117915 0.131677 0.123862 0.123862 0.117915 0.131677 0.1246 0.122753 0.116957 0.130347 0.123472 0.117915 0.112081 0.1246 0.117915 0.116957 0.111259 0.123472 0.116957 0.131677 0.1246 0.14009 0.131677 0.130347 0.123472 0.138491 0.130347 0.1246 0.117915 0.131677 0.123862 0.123472 0.116957 0.130347 0.122753 0.124239 0.13213 0.13035 0.139549 0.123862 0.131677 0.129915 0.139016 0.13213 0.140635 0.139549 0.149681 0.131677 0.14009 0.139016 0.149029 0.13035 0.139549 0.136444 0.147096 0.129915 0.139016 0.135946 0.146471 0.139549 0.149681 0.147096 0.159069 0.139016 0.149029 0.146471 0.158306 0.123862 0.131677 0.129915 0.139016 0.122753 0.130347 0.128636 0.137453 0.131677 0.14009 0.139016 0.149029 0.130347 0.138491 0.137453 0.147107 0.129915 0.139016 0.135946 0.146471 0.128636 0.137453 0.13448 0.144649 0.139016 0.149029 0.146471 0.158306 0.137453 0.147107 0.144649 0.156011 0.140635 0.149681 0.149681 0.160708 0.14009 0.149029 0.149029 0.159916 0.149681 0.159069 0.160708 0.172637 0.149029 0.158306 0.159916 0.17152 0.149681 0.160708 0.159069 0.172637 0.149029 0.159916 0.158306 0.17152 0.160708 0.172637 0.172637 0.187496 0.159916 0.17152 0.17152 0.186204 0.14009 0.149029 0.149029 0.159916 0.138491 0.147107 0.147107 0.157551 0.149029 0.158306 0.159916 0.17152 0.147107 0.156011 0.157551 0.168625 0.149029 0.159916 0.158306 0.17152 0.147107 0.157551 0.156011 0.168625 0.159916 0.17152 0.17152 0.186204 0.157551 0.168625 0.168625 0.182505 0.159069 0.168628 0.172637 0.184937 0.158306 0.167694 0.17152 0.183699 0.168628 0.177852 0.184937 0.197307 0.167694 0.176755 0.183699 0.195813 0.172637 0.184937 0.187496 0.203704 0.17152 0.183699 0.186204 0.202063 0.184937 0.197307 0.203704 0.220618 0.183699 0.195813 0.202063 0.218539 0.158306 0.167694 0.17152 0.183699 0.156011 0.164967 0.168625 0.180137 0.167694 0.176755 0.183699 0.195813 0.164967 0.173576 0.180137 0.191523 0.17152 0.183699 0.186204 0.202063 0.168625 0.180137 0.182505 0.197358 0.183699 0.195813 0.202063 0.218539 0.180137 0.191523 0.197358 0.212631 0.177852 0.186161 0.197307 0.20883 0.176755 0.184905 0.195813 0.207064 0.186161 0.192852 0.20883 0.218391 0.184905 0.191457 0.207064 0.216377 0.197307 0.20883 0.220618 0.237076 0.195813 0.207064 0.218539 0.234507 0.20883 0.218391 0.237076 0.25131 0.207064 0.216377 0.234507 0.248264 0.176755 0.184905 0.195813 0.207064 0.173576 0.18128 0.191523 0.202019 0.184905 0.191457 0.207064 0.216377 0.18128 0.187447 0.202019 0.210649 0.195813 0.207064 0.218539 0.234507 0.191523 0.202019 0.212631 0.22727 0.207064 0.216377 0.234507 0.248264 0.202019 0.210649 0.22727 0.239745 0.192852 0.197224 0.218391 0.224787 0.191457 0.195734 0.216377 0.222595 0.197224 0.198747 0.224787 0.227045 0.195734 0.197224 0.222595 0.224787 0.218391 0.224787 0.25131 0.261166 0.216377 0.222595 0.248264 0.257751 0.224787 0.227045 0.261166 0.264713 0.222595 0.224787 0.257751 0.261167 0.191457 0.195734 0.216377 0.222595 0.187447 0.191457 0.210649 0.216378 0.195734 0.197224 0.222595 0.224787 0.191457 0.192852 0.216378 0.218393 0.216377 0.222595 0.248264 0.257751 0.210649 0.216378 0.239745 0.248266 0.222595 0.224787 0.257751 0.261167 0.216378 0.218393 0.248266 0.251313 0.198747 0.197224 0.227045 0.224787 0.197224 0.195734 0.224787 0.222595 0.197224 0.192852 0.224787 0.218392 0.195734 0.191458 0.222595 0.216378 0.227045 0.224787 0.264713 0.261167 0.224787 0.222595 0.261167 0.257751 0.224787 0.218392 0.261167 0.251311 0.222595 0.216378 0.257751 0.248265 0.197224 0.195734 0.224787 0.222595 0.192852 0.191457 0.218393 0.216379 0.195734 0.191458 0.222595 0.216378 0.191457 0.187447 0.216379 0.210649 0.224787 0.222595 0.261167 0.257751 0.218393 0.216379 0.251313 0.248267 0.222595 0.216378 0.257751 0.248265 0.216379 0.210649 0.248267 0.239745 0.192852 0.186162 0.218392 0.20883 0.191458 0.184905 0.216378 0.207065 0.186162 0.177852 0.20883 0.197307 0.184905 0.176755 0.207065 0.195813 0.218392 0.20883 0.251311 0.237077 0.216378 0.207065 0.248265 0.234509 0.20883 0.197307 0.237077 0.220618 0.207065 0.195813 0.234509 0.21854 0.191458 0.184905 0.216378 0.207065 0.187447 0.18128 0.210649 0.202019 0.184905 0.176755 0.207065 0.195813 0.18128 0.173576 0.202019 0.191523 0.216378 0.207065 0.248265 0.234509 0.210649 0.202019 0.239745 0.227272 0.207065 0.195813 0.234509 0.21854 0.202019 0.191523 0.227272 0.212632 0.177852 0.168628 0.197307 0.184937 0.176755 0.167694 0.195813 0.183699 0.168628 0.159069 0.184937 0.172637 0.167694 0.158306 0.183699 0.17152 0.197307 0.184937 0.220618 0.203704 0.195813 0.183699 0.21854 0.202063 0.184937 0.172637 0.203704 0.187496 0.183699 0.17152 0.202063 0.186204 0.176755 0.167694 0.195813 0.183699 0.173576 0.164967 0.191523 0.180137 0.167694 0.158306 0.183699 0.17152 0.164967 0.156011 0.180137 0.168625 0.195813 0.183699 0.21854 0.202063 0.191523 0.180137 0.212632 0.197358 0.183699 0.17152 0.202063 0.186204 0.180137 0.168625 0.197358 0.182505 0.159069 0.149681 0.172637 0.160708 0.158306 0.149028 0.17152 0.159916 0.149681 0.140635 0.160708 0.149681 0.149028 0.14009 0.159916 0.149028 0.172637 0.160708 0.187496 0.172637 0.17152 0.159916 0.186204 0.17152 0.160708 0.149681 0.172637 0.159069 0.159916 0.149028 0.17152 0.158306 0.158306 0.149028 0.17152 0.159916 0.156011 0.147107 0.168625 0.15755 0.149028 0.14009 0.159916 0.149028 0.147107 0.138491 0.15755 0.147107 0.17152 0.159916 0.186204 0.17152 0.168625 0.15755 0.182505 0.168625 0.159916 0.149028 0.17152 0.158306 0.15755 0.147107 0.168625 0.156011 0.140635 0.13213 0.149681 0.139548 0.14009 0.131677 0.149028 0.139016 0.13213 0.124239 0.139548 0.13035 0.131677 0.123862 0.139016 0.129915 0.149681 0.139548 0.159069 0.147096 0.149028 0.139016 0.158306 0.146471 0.139548 0.13035 0.147096 0.136444 0.139016 0.129915 0.146471 0.135946 0.14009 0.131677 0.149028 0.139016 0.138491 0.130347 0.147107 0.137453 0.131677 0.123862 0.139016 0.129915 0.130347 0.122753 0.137453 0.128636 0.149028 0.139016 0.158306 0.146471 0.147107 0.137453 0.156011 0.144649 0.139016 0.129915 0.146471 0.135946 0.137453 0.128636 0.144649 0.13448 0.136444 0.147096 0.142283 0.154589 0.135946 0.146471 0.14172 0.153864 0.147096 0.159069 0.154589 0.168628 0.146471 0.158306 0.153864 0.167694 0.142283 0.154589 0.147741 0.161541 0.14172 0.153864 0.147108 0.160717 0.154589 0.168628 0.161541 0.177852 0.153864 0.167694 0.160717 0.176755 0.135946 0.146471 0.14172 0.153864 0.13448 0.144649 0.140058 0.151763 0.146471 0.158306 0.153864 0.167694 0.144649 0.156011 0.151763 0.164967 0.14172 0.153864 0.147108 0.160717 0.140058 0.151763 0.145251 0.158317 0.153864 0.167694 0.160717 0.176755 0.151763 0.164967 0.158317 0.173576 0.159069 0.172637 0.168628 0.184937 0.158306 0.17152 0.167694 0.183699 0.172637 0.187496 0.184937 0.203704 0.17152 0.186204 0.183699 0.202063 0.168628 0.184937 0.177852 0.197307 0.167694 0.183699 0.176755 0.195813 0.184937 0.203704 0.197307 0.220618 0.183699 0.202063 0.195813 0.218539 0.158306 0.17152 0.167694 0.183699 0.156011 0.168625 0.164967 0.180137 0.17152 0.186204 0.183699 0.202063 0.168625 0.182505 0.180137 0.197358 0.167694 0.183699 0.176755 0.195813 0.164967 0.180137 0.173576 0.191523 0.183699 0.202063 0.195813 0.218539 0.180137 0.197358 0.191523 0.212631 0.187496 0.203704 0.203704 0.225036 0.186204 0.202063 0.202063 0.222832 0.203704 0.220618 0.225036 0.248567 0.202063 0.218539 0.222832 0.24561 0.203704 0.225036 0.220618 0.248567 0.202063 0.222832 0.218539 0.24561 0.225036 0.248567 0.248567 0.282073 0.222832 0.24561 0.24561 0.277785 0.186204 0.202063 0.202063 0.222832 0.182505 0.197358 0.197358 0.216574 0.202063 0.218539 0.222832 0.24561 0.197358 0.212631 0.216574 0.237303 0.202063 0.222832 0.218539 0.24561 0.197358 0.216574 0.212631 0.237303 0.222832 0.24561 0.24561 0.277785 0.216574 0.237303 0.237303 0.265554 0.220618 0.237076 0.248567 0.272836 0.218539 0.234507 0.24561 0.268945 0.237076 0.25131 0.272836 0.295108 0.234507 0.248264 0.268945 0.290205 0.248567 0.272836 0.282073 0.318918 0.24561 0.268945 0.277785 0.312864 0.272836 0.295108 0.318918 0.356369 0.268945 0.290205 0.312864 0.347351 0.218539 0.234507 0.24561 0.268945 0.212631 0.22727 0.237303 0.258222 0.234507 0.248264 0.268945 0.290205 0.22727 0.239745 0.258222 0.276918 0.24561 0.268945 0.277785 0.312864 0.237303 0.258222 0.265554 0.29655 0.268945 0.290205 0.312864 0.347351 0.258222 0.276918 0.29655 0.325702 0.25131 0.261166 0.295108 0.311492 0.248264 0.257751 0.290205 0.305631 0.261166 0.264713 0.311492 0.317501 0.257751 0.261167 0.305631 0.311495 0.295108 0.311492 0.356369 0.388732 0.290205 0.305631 0.347351 0.374952 0.311492 0.317501 0.388732 0.398963 0.305631 0.311495 0.374952 0.388742 0.248264 0.257751 0.290205 0.305631 0.239745 0.248266 0.276918 0.290211 0.257751 0.261167 0.305631 0.311495 0.248266 0.251313 0.290211 0.295113 0.290205 0.305631 0.347351 0.374952 0.276918 0.290211 0.325702 0.347366 0.305631 0.311495 0.374952 0.388742 0.290211 0.295113 0.347366 0.356378 0.264713 0.261167 0.317501 0.311494 0.261167 0.257751 0.311495 0.305632 0.261167 0.251311 0.311494 0.295108 0.257751 0.248265 0.305632 0.290208 0.317501 0.311494 0.398963 0.388738 0.311495 0.305632 0.388742 0.374951 0.311494 0.295108 0.388738 0.356367 0.305632 0.290208 0.374951 0.347363 0.261167 0.257751 0.311495 0.305632 0.251313 0.248267 0.295113 0.290211 0.257751 0.248265 0.305632 0.290208 0.248267 0.239745 0.290211 0.276919 0.311495 0.305632 0.388742 0.374951 0.295113 0.290211 0.356378 0.347375 0.305632 0.290208 0.374951 0.347363 0.290211 0.276919 0.347375 0.325662 0.251311 0.237077 0.295108 0.272835 0.248265 0.234509 0.290208 0.268947 0.237077 0.220618 0.272835 0.248565 0.234509 0.21854 0.268947 0.245612 0.295108 0.272835 0.356367 0.318923 0.290208 0.268947 0.347363 0.312808 0.272835 0.248565 0.318923 0.282071 0.268947 0.245612 0.312808 0.277749 0.248265 0.234509 0.290208 0.268947 0.239745 0.227272 0.276919 0.258239 0.234509 0.21854 0.268947 0.245612 0.227272 0.212632 0.258239 0.237318 0.290208 0.268947 0.347363 0.312808 0.276919 0.258239 0.325662 0.296782 0.268947 0.245612 0.312808 0.277749 0.258239 0.237318 0.296782 0.265731 0.220618 0.203704 0.248565 0.225036 0.21854 0.202063 0.245612 0.222832 0.203704 0.187496 0.225036 0.203704 0.202063 0.186204 0.222832 0.202063 0.248565 0.225036 0.282071 0.248565 0.245612 0.222832 0.277749 0.245612 0.225036 0.203704 0.248565 0.220618 0.222832 0.202063 0.245612 0.21854 0.21854 0.202063 0.245612 0.222832 0.212632 0.197358 0.237318 0.216575 0.202063 0.186204 0.222832 0.202063 0.197358 0.182505 0.216575 0.197358 0.245612 0.222832 0.277749 0.245612 0.237318 0.216575 0.265731 0.237318 0.222832 0.202063 0.245612 0.21854 0.216575 0.197358 0.237318 0.212632 0.187496 0.172637 0.203704 0.184937 0.186204 0.17152 0.202063 0.183699 0.172637 0.159069 0.184937 0.168628 0.17152 0.158306 0.183699 0.167694 0.203704 0.184937 0.220618 0.197307 0.202063 0.183699 0.21854 0.195813 0.184937 0.168628 0.197307 0.177852 0.183699 0.167694 0.195813 0.176755 0.186204 0.17152 0.202063 0.183699 0.182505 0.168625 0.197358 0.180137 0.17152 0.158306 0.183699 0.167694 0.168625 0.156011 0.180137 0.164967 0.202063 0.183699 0.21854 0.195813 0.197358 0.180137 0.212632 0.191523 0.183699 0.167694 0.195813 0.176755 0.180137 0.164967 0.191523 0.173576 0.159069 0.147096 0.168628 0.154589 0.158306 0.146471 0.167694 0.153864 0.147096 0.136444 0.154589 0.142283 0.146471 0.135946 0.153864 0.14172 0.168628 0.154589 0.177852 0.161541 0.167694 0.153864 0.176755 0.160717 0.154589 0.142283 0.161541 0.147741 0.153864 0.14172 0.160717 0.147108 0.158306 0.146471 0.167694 0.153864 0.156011 0.144649 0.164967 0.151763 0.146471 0.135946 0.153864 0.14172 0.144649 0.13448 0.151763 0.140057 0.167694 0.153864 0.176755 0.160717 0.164967 0.151763 0.173576 0.158317 0.153864 0.14172 0.160717 0.147108 0.151763 0.140057 0.158317 0.145251 0.147741 0.161541 0.152399 0.167683 0.147108 0.160717 0.151706 0.166762 0.161541 0.177852 0.167683 0.186161 0.160717 0.176755 0.166762 0.184905 0.152399 0.167683 0.15601 0.172525 0.151706 0.166762 0.155266 0.171523 0.167683 0.186161 0.172525 0.192852 0.166762 0.184905 0.171523 0.191457 0.147108 0.160717 0.151706 0.166762 0.145251 0.158317 0.14968 0.164088 0.160717 0.176755 0.166762 0.184905 0.158317 0.173576 0.164088 0.18128 0.151706 0.166762 0.155266 0.171523 0.14968 0.164088 0.153098 0.168618 0.166762 0.184905 0.171523 0.191457 0.164088 0.18128 0.168618 0.187447 0.177852 0.197307 0.186161 0.20883 0.176755 0.195813 0.184905 0.207064 0.197307 0.220618 0.20883 0.237076 0.195813 0.218539 0.207064 0.234507 0.186161 0.20883 0.192852 0.218391 0.184905 0.207064 0.191457 0.216377 0.20883 0.237076 0.218391 0.25131 0.207064 0.234507 0.216377 0.248264 0.176755 0.195813 0.184905 0.207064 0.173576 0.191523 0.18128 0.202019 0.195813 0.218539 0.207064 0.234507 0.191523 0.212631 0.202019 0.22727 0.184905 0.207064 0.191457 0.216377 0.18128 0.202019 0.187447 0.210649 0.207064 0.234507 0.216377 0.248264 0.202019 0.22727 0.210649 0.239745 0.220618 0.248567 0.237076 0.272836 0.218539 0.24561 0.234507 0.268945 0.248567 0.282073 0.272836 0.318918 0.24561 0.277785 0.268945 0.312864 0.237076 0.272836 0.25131 0.295108 0.234507 0.268945 0.248264 0.290205 0.272836 0.318918 0.295108 0.356369 0.268945 0.312864 0.290205 0.347351 0.218539 0.24561 0.234507 0.268945 0.212631 0.237303 0.22727 0.258222 0.24561 0.277785 0.268945 0.312864 0.237303 0.265554 0.258222 0.29655 0.234507 0.268945 0.248264 0.290205 0.22727 0.258222 0.239745 0.276918 0.268945 0.312864 0.290205 0.347351 0.258222 0.29655 0.276918 0.325702 0.318918 0.356369 0.377031 0.442408 0.312864 0.347351 0.365459 0.426959 0.318918 0.377031 0.356369 0.442408 0.312864 0.365459 0.347351 0.426959 0.347351 0.374952 0.426959 0.478326 0.325702 0.347366 0.387621 0.426993 0.374951 0.347363 0.478346 0.42697 0.347375 0.325662 0.426975 0.387658 0.356367 0.318923 0.442419 0.377025 0.347363 0.312808 0.42697 0.365467 0.377025 0.318923 0.44242 0.356368 0.365467 0.312808 0.426971 0.347364 0.282071 0.248565 0.318923 0.272835 0.277749 0.245612 0.312808 0.268947 0.248565 0.220618 0.272835 0.237077 0.245612 0.21854 0.268947 0.234509 0.318923 0.272835 0.356368 0.295109 0.312808 0.268947 0.347364 0.290208 0.272835 0.237077 0.295109 0.251311 0.268947 0.234509 0.290208 0.248265 0.277749 0.245612 0.312808 0.268947 0.265731 0.237318 0.296782 0.258239 0.245612 0.21854 0.268947 0.234509 0.237318 0.212632 0.258239 0.227271 0.312808 0.268947 0.347364 0.290208 0.296782 0.258239 0.325662 0.276919 0.268947 0.234509 0.290208 0.248265 0.258239 0.227271 0.276919 0.239745 0.220618 0.197307 0.237077 0.20883 0.21854 0.195813 0.234509 0.207065 0.197307 0.177852 0.20883 0.186162 0.195813 0.176