<?xml version="1.0" ?> 
<!-- 
# vtk DataFile Version 3.0
#This file was generated by the deal.II library on 16:49:53 at 2019/11/27
-->
<VTKFile type="UnstructuredGrid" version="0.1" byte_order="LittleEndian">
<UnstructuredGrid>
<Piece NumberOfPoints="40704" NumberOfCells="5088" >
  <Points>
    <DataArray type="Float32" NumberOfComponents="3" format="ascii">
-50 -50 0
-40 -50 0
-50 -40 0
-40 -40 0
-50 -50 10
-40 -50 10
-50 -40 10
-40 -40 10
-40 -50 0
-30 -50 0
-40 -40 0
-30 -40 0
-40 -50 10
-30 -50 10
-40 -40 10
-30 -40 10
-30 -50 0
-20 -50 0
-30 -40 0
-20 -40 0
-30 -50 10
-20 -50 10
-30 -40 10
-20 -40 10
-20 -50 0
-10 -50 0
-20 -40 0
-10 -40 0
-20 -50 10
-10 -50 10
-20 -40 10
-10 -40 10
-10 -50 0
0 -50 0
-10 -40 0
0 -40 0
-10 -50 10
0 -50 10
-10 -40 10
0 -40 10
0 -50 0
10 -50 0
0 -40 0
10 -40 0
0 -50 10
10 -50 10
0 -40 10
10 -40 10
10 -50 0
20 -50 0
10 -40 0
20 -40 0
10 -50 10
20 -50 10
10 -40 10
20 -40 10
20 -50 0
30 -50 0
20 -40 0
30 -40 0
20 -50 10
30 -50 10
20 -40 10
30 -40 10
30 -50 0
40 -50 0
30 -40 0
40 -40 0
30 -50 10
40 -50 10
30 -40 10
40 -40 10
40 -50 0
50 -50 0
40 -40 0
50 -40 0
40 -50 10
50 -50 10
40 -40 10
50 -40 10
-50 -40 0
-40 -40 0
-50 -30 0
-40 -30 0
-50 -40 10
-40 -40 10
-50 -30 10
-40 -30 10
-40 -40 0
-30 -40 0
-40 -30 0
-30 -30 0
-40 -40 10
-30 -40 10
-40 -30 10
-30 -30 10
-30 -40 0
-20 -40 0
-30 -30 0
-20 -30 0
-30 -40 10
-20 -40 10
-30 -30 10
-20 -30 10
-20 -40 0
-10 -40 0
-20 -30 0
-10 -30 0
-20 -40 10
-10 -40 10
-20 -30 10
-10 -30 10
-10 -40 0
0 -40 0
-10 -30 0
0 -30 0
-10 -40 10
0 -40 10
-10 -30 10
0 -30 10
0 -40 0
10 -40 0
0 -30 0
10 -30 0
0 -40 10
10 -40 10
0 -30 10
10 -30 10
10 -40 0
20 -40 0
10 -30 0
20 -30 0
10 -40 10
20 -40 10
10 -30 10
20 -30 10
20 -40 0
30 -40 0
20 -30 0
30 -30 0
20 -40 10
30 -40 10
20 -30 10
30 -30 10
30 -40 0
40 -40 0
30 -30 0
40 -30 0
30 -40 10
40 -40 10
30 -30 10
40 -30 10
40 -40 0
50 -40 0
40 -30 0
50 -30 0
40 -40 10
50 -40 10
40 -30 10
50 -30 10
-30 -30 0
-20 -30 0
-30 -20 0
-20 -20 0
-30 -30 10
-20 -30 10
-30 -20 10
-20 -20 10
10 -30 0
20 -30 0
10 -20 0
20 -20 0
10 -30 10
20 -30 10
10 -20 10
20 -20 10
20 -30 0
30 -30 0
20 -20 0
30 -20 0
20 -30 10
30 -30 10
20 -20 10
30 -20 10
30 -30 0
40 -30 0
30 -20 0
40 -20 0
30 -30 10
40 -30 10
30 -20 10
40 -20 10
40 -30 0
50 -30 0
40 -20 0
50 -20 0
40 -30 10
50 -30 10
40 -20 10
50 -20 10
10 -20 0
20 -20 0
10 -10 0
20 -10 0
10 -20 10
20 -20 10
10 -10 10
20 -10 10
20 -20 0
30 -20 0
20 -10 0
30 -10 0
20 -20 10
30 -20 10
20 -10 10
30 -10 10
30 -20 0
40 -20 0
30 -10 0
40 -10 0
30 -20 10
40 -20 10
30 -10 10
40 -10 10
40 -20 0
50 -20 0
40 -10 0
50 -10 0
40 -20 10
50 -20 10
40 -10 10
50 -10 10
20 -10 0
30 -10 0
20 0 0
30 0 0
20 -10 10
30 -10 10
20 0 10
30 0 10
30 -10 0
40 -10 0
30 0 0
40 0 0
30 -10 10
40 -10 10
30 0 10
40 0 10
40 -10 0
50 -10 0
40 0 0
50 0 0
40 -10 10
50 -10 10
40 0 10
50 0 10
20 0 0
30 0 0
20 10 0
30 10 0
20 0 10
30 0 10
20 10 10
30 10 10
30 0 0
40 0 0
30 10 0
40 10 0
30 0 10
40 0 10
30 10 10
40 10 10
40 0 0
50 0 0
40 10 0
50 10 0
40 0 10
50 0 10
40 10 10
50 10 10
10 10 0
20 10 0
10 20 0
20 20 0
10 10 10
20 10 10
10 20 10
20 20 10
20 10 0
30 10 0
20 20 0
30 20 0
20 10 10
30 10 10
20 20 10
30 20 10
30 10 0
40 10 0
30 20 0
40 20 0
30 10 10
40 10 10
30 20 10
40 20 10
40 10 0
50 10 0
40 20 0
50 20 0
40 10 10
50 10 10
40 20 10
50 20 10
10 20 0
20 20 0
10 30 0
20 30 0
10 20 10
20 20 10
10 30 10
20 30 10
20 20 0
30 20 0
20 30 0
30 30 0
20 20 10
30 20 10
20 30 10
30 30 10
30 20 0
40 20 0
30 30 0
40 30 0
30 20 10
40 20 10
30 30 10
40 30 10
40 20 0
50 20 0
40 30 0
50 30 0
40 20 10
50 20 10
40 30 10
50 30 10
-50 30 0
-40 30 0
-50 40 0
-40 40 0
-50 30 10
-40 30 10
-50 40 10
-40 40 10
-40 30 0
-30 30 0
-40 40 0
-30 40 0
-40 30 10
-30 30 10
-40 40 10
-30 40 10
-30 30 0
-20 30 0
-30 40 0
-20 40 0
-30 30 10
-20 30 10
-30 40 10
-20 40 10
-20 30 0
-10 30 0
-20 40 0
-10 40 0
-20 30 10
-10 30 10
-20 40 10
-10 40 10
-10 30 0
0 30 0
-10 40 0
0 40 0
-10 30 10
0 30 10
-10 40 10
0 40 10
0 30 0
10 30 0
0 40 0
10 40 0
0 30 10
10 30 10
0 40 10
10 40 10
10 30 0
20 30 0
10 40 0
20 40 0
10 30 10
20 30 10
10 40 10
20 40 10
20 30 0
30 30 0
20 40 0
30 40 0
20 30 10
30 30 10
20 40 10
30 40 10
30 30 0
40 30 0
30 40 0
40 40 0
30 30 10
40 30 10
30 40 10
40 40 10
40 30 0
50 30 0
40 40 0
50 40 0
40 30 10
50 30 10
40 40 10
50 40 10
-50 40 0
-40 40 0
-50 50 0
-40 50 0
-50 40 10
-40 40 10
-50 50 10
-40 50 10
-40 40 0
-30 40 0
-40 50 0
-30 50 0
-40 40 10
-30 40 10
-40 50 10
-30 50 10
-30 40 0
-20 40 0
-30 50 0
-20 50 0
-30 40 10
-20 40 10
-30 50 10
-20 50 10
-20 40 0
-10 40 0
-20 50 0
-10 50 0
-20 40 10
-10 40 10
-20 50 10
-10 50 10
-10 40 0
0 40 0
-10 50 0
0 50 0
-10 40 10
0 40 10
-10 50 10
0 50 10
0 40 0
10 40 0
0 50 0
10 50 0
0 40 10
10 40 10
0 50 10
10 50 10
10 40 0
20 40 0
10 50 0
20 50 0
10 40 10
20 40 10
10 50 10
20 50 10
20 40 0
30 40 0
20 50 0
30 50 0
20 40 10
30 40 10
20 50 10
30 50 10
30 40 0
40 40 0
30 50 0
40 50 0
30 40 10
40 40 10
30 50 10
40 50 10
40 40 0
50 40 0
40 50 0
50 50 0
40 40 10
50 40 10
40 50 10
50 50 10
-50 -50 10
-40 -50 10
-50 -40 10
-40 -40 10
-50 -50 20
-40 -50 20
-50 -40 20
-40 -40 20
-40 -50 10
-30 -50 10
-40 -40 10
-30 -40 10
-40 -50 20
-30 -50 20
-40 -40 20
-30 -40 20
-30 -50 10
-20 -50 10
-30 -40 10
-20 -40 10
-30 -50 20
-20 -50 20
-30 -40 20
-20 -40 20
-20 -50 10
-10 -50 10
-20 -40 10
-10 -40 10
-20 -50 20
-10 -50 20
-20 -40 20
-10 -40 20
-10 -50 10
0 -50 10
-10 -40 10
0 -40 10
-10 -50 20
0 -50 20
-10 -40 20
0 -40 20
0 -50 10
10 -50 10
0 -40 10
10 -40 10
0 -50 20
10 -50 20
0 -40 20
10 -40 20
10 -50 10
20 -50 10
10 -40 10
20 -40 10
10 -50 20
20 -50 20
10 -40 20
20 -40 20
20 -50 10
30 -50 10
20 -40 10
30 -40 10
20 -50 20
30 -50 20
20 -40 20
30 -40 20
30 -50 10
40 -50 10
30 -40 10
40 -40 10
30 -50 20
40 -50 20
30 -40 20
40 -40 20
40 -50 10
50 -50 10
40 -40 10
50 -40 10
40 -50 20
50 -50 20
40 -40 20
50 -40 20
-50 -40 10
-40 -40 10
-50 -30 10
-40 -30 10
-50 -40 20
-40 -40 20
-50 -30 20
-40 -30 20
-40 -40 10
-30 -40 10
-40 -30 10
-30 -30 10
-40 -40 20
-30 -40 20
-40 -30 20
-30 -30 20
-30 -40 10
-20 -40 10
-30 -30 10
-20 -30 10
-30 -40 20
-20 -40 20
-30 -30 20
-20 -30 20
0 -40 10
10 -40 10
0 -30 10
10 -30 10
0 -40 20
10 -40 20
0 -30 20
10 -30 20
10 -40 10
20 -40 10
10 -30 10
20 -30 10
10 -40 20
20 -40 20
10 -30 20
20 -30 20
20 -40 10
30 -40 10
20 -30 10
30 -30 10
20 -40 20
30 -40 20
20 -30 20
30 -30 20
30 -40 10
40 -40 10
30 -30 10
40 -30 10
30 -40 20
40 -40 20
30 -30 20
40 -30 20
40 -40 10
50 -40 10
40 -30 10
50 -30 10
40 -40 20
50 -40 20
40 -30 20
50 -30 20
10 -30 10
20 -30 10
10 -20 10
20 -20 10
10 -30 20
20 -30 20
10 -20 20
20 -20 20
20 -30 10
30 -30 10
20 -20 10
30 -20 10
20 -30 20
30 -30 20
20 -20 20
30 -20 20
30 -30 10
40 -30 10
30 -20 10
40 -20 10
30 -30 20
40 -30 20
30 -20 20
40 -20 20
40 -30 10
50 -30 10
40 -20 10
50 -20 10
40 -30 20
50 -30 20
40 -20 20
50 -20 20
10 -20 10
20 -20 10
10 -10 10
20 -10 10
10 -20 20
20 -20 20
10 -10 20
20 -10 20
20 -20 10
30 -20 10
20 -10 10
30 -10 10
20 -20 20
30 -20 20
20 -10 20
30 -10 20
30 -20 10
40 -20 10
30 -10 10
40 -10 10
30 -20 20
40 -20 20
30 -10 20
40 -10 20
40 -20 10
50 -20 10
40 -10 10
50 -10 10
40 -20 20
50 -20 20
40 -10 20
50 -10 20
10 -10 10
20 -10 10
10 0 10
20 0 10
10 -10 20
20 -10 20
10 0 20
20 0 20
20 -10 10
30 -10 10
20 0 10
30 0 10
20 -10 20
30 -10 20
20 0 20
30 0 20
30 -10 10
40 -10 10
30 0 10
40 0 10
30 -10 20
40 -10 20
30 0 20
40 0 20
40 -10 10
50 -10 10
40 0 10
50 0 10
40 -10 20
50 -10 20
40 0 20
50 0 20
10 0 10
20 0 10
10 10 10
20 10 10
10 0 20
20 0 20
10 10 20
20 10 20
20 0 10
30 0 10
20 10 10
30 10 10
20 0 20
30 0 20
20 10 20
30 10 20
30 0 10
40 0 10
30 10 10
40 10 10
30 0 20
40 0 20
30 10 20
40 10 20
40 0 10
50 0 10
40 10 10
50 10 10
40 0 20
50 0 20
40 10 20
50 10 20
10 10 10
20 10 10
10 20 10
20 20 10
10 10 20
20 10 20
10 20 20
20 20 20
20 10 10
30 10 10
20 20 10
30 20 10
20 10 20
30 10 20
20 20 20
30 20 20
30 10 10
40 10 10
30 20 10
40 20 10
30 10 20
40 10 20
30 20 20
40 20 20
40 10 10
50 10 10
40 20 10
50 20 10
40 10 20
50 10 20
40 20 20
50 20 20
10 20 10
20 20 10
10 30 10
20 30 10
10 20 20
20 20 20
10 30 20
20 30 20
20 20 10
30 20 10
20 30 10
30 30 10
20 20 20
30 20 20
20 30 20
30 30 20
30 20 10
40 20 10
30 30 10
40 30 10
30 20 20
40 20 20
30 30 20
40 30 20
40 20 10
50 20 10
40 30 10
50 30 10
40 20 20
50 20 20
40 30 20
50 30 20
-40 30 10
-30 30 10
-40 40 10
-30 40 10
-40 30 20
-30 30 20
-40 40 20
-30 40 20
-30 30 10
-20 30 10
-30 40 10
-20 40 10
-30 30 20
-20 30 20
-30 40 20
-20 40 20
-10 30 10
0 30 10
-10 40 10
0 40 10
-10 30 20
0 30 20
-10 40 20
0 40 20
0 30 10
10 30 10
0 40 10
10 40 10
0 30 20
10 30 20
0 40 20
10 40 20
10 30 10
20 30 10
10 40 10
20 40 10
10 30 20
20 30 20
10 40 20
20 40 20
20 30 10
30 30 10
20 40 10
30 40 10
20 30 20
30 30 20
20 40 20
30 40 20
30 30 10
40 30 10
30 40 10
40 40 10
30 30 20
40 30 20
30 40 20
40 40 20
40 30 10
50 30 10
40 40 10
50 40 10
40 30 20
50 30 20
40 40 20
50 40 20
-50 40 10
-40 40 10
-50 50 10
-40 50 10
-50 40 20
-40 40 20
-50 50 20
-40 50 20
-40 40 10
-30 40 10
-40 50 10
-30 50 10
-40 40 20
-30 40 20
-40 50 20
-30 50 20
-30 40 10
-20 40 10
-30 50 10
-20 50 10
-30 40 20
-20 40 20
-30 50 20
-20 50 20
-20 40 10
-10 40 10
-20 50 10
-10 50 10
-20 40 20
-10 40 20
-20 50 20
-10 50 20
-10 40 10
0 40 10
-10 50 10
0 50 10
-10 40 20
0 40 20
-10 50 20
0 50 20
0 40 10
10 40 10
0 50 10
10 50 10
0 40 20
10 40 20
0 50 20
10 50 20
10 40 10
20 40 10
10 50 10
20 50 10
10 40 20
20 40 20
10 50 20
20 50 20
20 40 10
30 40 10
20 50 10
30 50 10
20 40 20
30 40 20
20 50 20
30 50 20
30 40 10
40 40 10
30 50 10
40 50 10
30 40 20
40 40 20
30 50 20
40 50 20
40 40 10
50 40 10
40 50 10
50 50 10
40 40 20
50 40 20
40 50 20
50 50 20
-50 -50 20
-40 -50 20
-50 -40 20
-40 -40 20
-50 -50 30
-40 -50 30
-50 -40 30
-40 -40 30
-40 -50 20
-30 -50 20
-40 -40 20
-30 -40 20
-40 -50 30
-30 -50 30
-40 -40 30
-30 -40 30
-30 -50 20
-20 -50 20
-30 -40 20
-20 -40 20
-30 -50 30
-20 -50 30
-30 -40 30
-20 -40 30
-20 -50 20
-10 -50 20
-20 -40 20
-10 -40 20
-20 -50 30
-10 -50 30
-20 -40 30
-10 -40 30
-10 -50 20
0 -50 20
-10 -40 20
0 -40 20
-10 -50 30
0 -50 30
[...]
  <PointData Scalars="scalars">
    <DataArray type="Float32" Name="u" format="ascii">
0.282184 0.304727 0.336888 0.372484 0.277884 0.299134 0.329637 0.362315 0.304727 0.317034 0.372484 0.394668 0.299134 0.310793 0.362315 0.382749 0.317034 0.317105 0.394668 0.39473 0.310793 0.310845 0.382749 0.382907 0.317105 0.305058 0.39473 0.372624 0.310845 0.299331 0.382907 0.361843 0.305058 0.284202 0.372624 0.338141 0.299331 0.279806 0.361843 0.329765 0.284202 0.26099 0.338141 0.29975 0.279806 0.257603 0.329765 0.294513 0.26099 0.236911 0.29975 0.264572 0.257603 0.234366 0.294513 0.261056 0.236911 0.214334 0.264572 0.234161 0.234366 0.212448 0.261056 0.231703 0.214334 0.194132 0.234161 0.208513 0.212448 0.192726 0.231703 0.206774 0.194132 0.176148 0.208513 0.187176 0.192726 0.175102 0.206774 0.185917 0.336888 0.372484 0.410455 0.477596 0.329637 0.362315 0.39805 0.455952 0.372484 0.394668 0.477596 0.523548 0.362315 0.382749 0.455952 0.495428 0.394668 0.39473 0.523548 0.523675 0.382749 0.382907 0.495428 0.496236 0.39473 0.372624 0.523675 0.477917 0.382907 0.361843 0.496236 0.454054 0.372624 0.338141 0.477917 0.409366 0.361843 0.329765 0.454054 0.395152 0.338141 0.29975 0.409366 0.345302 0.329765 0.294513 0.395152 0.33745 0.29975 0.264572 0.345302 0.294297 0.294513 0.261056 0.33745 0.289466 0.264572 0.234161 0.294297 0.25403 0.261056 0.231703 0.289466 0.250893 0.234161 0.208513 0.25403 0.222218 0.231703 0.206774 0.250893 0.220114 0.208513 0.187176 0.222218 0.196898 0.206774 0.185917 0.220114 0.195437 0.523548 0.523675 0.770994 0.770745 0.495428 0.496236 0.693616 0.693474 0.345302 0.294297 0.397033 0.323215 0.33745 0.289466 0.385311 0.316872 0.294297 0.25403 0.323215 0.27173 0.289466 0.250893 0.316872 0.267852 0.25403 0.222218 0.27173 0.233822 0.250893 0.220114 0.267852 0.231387 0.222218 0.196898 0.233822 0.204804 0.220114 0.195437 0.231387 0.203155 0.397033 0.323215 0.437445 0.34465 0.385311 0.316872 0.422603 0.33625 0.323215 0.27173 0.34465 0.284532 0.316872 0.267852 0.33625 0.280642 0.27173 0.233822 0.284532 0.241801 0.267852 0.231387 0.280642 0.239002 0.233822 0.204804 0.241801 0.21015 0.231387 0.203155 0.239002 0.208314 0.34465 0.284532 0.357153 0.289103 0.33625 0.280642 0.344672 0.284341 0.284532 0.241801 0.289103 0.245722 0.280642 0.239002 0.284341 0.241876 0.241801 0.21015 0.245722 0.211859 0.239002 0.208314 0.241876 0.210147 0.357153 0.289103 0.344651 0.28453 0.344672 0.284341 0.336249 0.280639 0.289103 0.245722 0.28453 0.241798 0.284341 0.241876 0.280639 0.239 0.245722 0.211859 0.241798 0.210148 0.241876 0.210147 0.239 0.208312 0.437459 0.344651 0.397052 0.323213 0.422612 0.336249 0.385325 0.316868 0.344651 0.28453 0.323213 0.271725 0.336249 0.280639 0.316868 0.267846 0.28453 0.241798 0.271725 0.233816 0.280639 0.239 0.267846 0.231382 0.241798 0.210148 0.233816 0.2048 0.239 0.208312 0.231382 0.203151 0.397052 0.323213 0.345296 0.294285 0.385325 0.316868 0.337417 0.289456 0.323213 0.271725 0.294285 0.254021 0.316868 0.267846 0.289456 0.250883 0.271725 0.233816 0.254021 0.22221 0.267846 0.231382 0.250883 0.220107 0.233816 0.2048 0.22221 0.196892 0.231382 0.203151 0.220107 0.19543 0.411074 0.478395 0.337103 0.372472 0.39602 0.453959 0.330149 0.361419 0.478395 0.523172 0.372472 0.394694 0.453959 0.495319 0.361419 0.382756 0.523172 0.52318 0.394694 0.394694 0.495319 0.496562 0.382756 0.383017 0.52318 0.476752 0.394694 0.372632 0.496562 0.45689 0.383017 0.362619 0.476752 0.40934 0.372632 0.338178 0.45689 0.395253 0.362619 0.329392 0.40934 0.345296 0.338178 0.299697 0.395253 0.337417 0.329392 0.294518 0.345296 0.294285 0.299697 0.264558 0.337417 0.289456 0.294518 0.261034 0.294285 0.254021 0.264558 0.234148 0.289456 0.250883 0.261034 0.231692 0.254021 0.22221 0.234148 0.208504 0.250883 0.220107 0.231692 0.206765 0.22221 0.196892 0.208504 0.187169 0.220107 0.19543 0.206765 0.18591 0.337103 0.372472 0.282126 0.304647 0.330149 0.361419 0.277752 0.298914 0.372472 0.394694 0.304647 0.317038 0.361419 0.382756 0.298914 0.310764 0.394694 0.394694 0.317038 0.317129 0.382756 0.383017 0.310764 0.310926 0.394694 0.372632 0.317129 0.305135 0.383017 0.362619 0.310926 0.299566 0.372632 0.338178 0.305135 0.28416 0.362619 0.329392 0.299566 0.280099 0.338178 0.299697 0.28416 0.26098 0.329392 0.294518 0.280099 0.257537 0.299697 0.264558 0.26098 0.236888 0.294518 0.261034 0.257537 0.234352 0.264558 0.234148 0.236888 0.214323 0.261034 0.231692 0.234352 0.212435 0.234148 0.208504 0.214323 0.194123 0.231692 0.206765 0.212435 0.192717 0.208504 0.187169 0.194123 0.176141 0.206765 0.18591 0.192717 0.175094 0.277884 0.299134 0.329637 0.362315 0.266342 0.283781 0.310446 0.335556 0.299134 0.310793 0.362315 0.382749 0.283781 0.294223 0.335556 0.35336 0.310793 0.310845 0.382749 0.382907 0.294223 0.294246 0.35336 0.35349 0.310845 0.299331 0.382907 0.361843 0.294246 0.283522 0.35349 0.336826 0.299331 0.279806 0.361843 0.329765 0.283522 0.267886 0.336826 0.310937 0.279806 0.257603 0.329765 0.294513 0.267886 0.248172 0.310937 0.28067 0.257603 0.234366 0.294513 0.261056 0.248172 0.227199 0.28067 0.251253 0.234366 0.212448 0.261056 0.231703 0.227199 0.207062 0.251253 0.224764 0.212448 0.192726 0.231703 0.206774 0.207062 0.188679 0.224764 0.201798 0.192726 0.175102 0.206774 0.185917 0.188679 0.172067 0.201798 0.182284 0.329637 0.362315 0.39805 0.455952 0.310446 0.335556 0.36399 0.409111 0.362315 0.382749 0.455952 0.495428 0.335556 0.35336 0.409111 0.438037 0.382749 0.382907 0.495428 0.496236 0.35336 0.35349 0.438037 0.437031 0.329765 0.294513 0.395152 0.33745 0.310937 0.28067 0.362998 0.317082 0.294513 0.261056 0.33745 0.289466 0.28067 0.251253 0.317082 0.276196 0.261056 0.231703 0.289466 0.250893 0.251253 0.224764 0.276196 0.24213 0.231703 0.206774 0.250893 0.220114 0.224764 0.201798 0.24213 0.214146 0.206774 0.185917 0.220114 0.195437 0.201798 0.182284 0.214146 0.19123 0.33745 0.289466 0.385311 0.316872 0.317082 0.276196 0.353519 0.299153 0.289466 0.250893 0.316872 0.267852 0.276196 0.24213 0.299153 0.257297 0.250893 0.220114 0.267852 0.231387 0.24213 0.214146 0.257297 0.224444 0.220114 0.195437 0.231387 0.203155 0.214146 0.19123 0.224444 0.19845 0.385311 0.316872 0.422603 0.33625 0.353519 0.299153 0.385376 0.316327 0.316872 0.267852 0.33625 0.280642 0.299153 0.257297 0.316327 0.267878 0.267852 0.231387 0.280642 0.239002 0.257297 0.224444 0.267878 0.231454 0.231387 0.203155 0.239002 0.208314 0.224444 0.19845 0.231454 0.203165 0.422603 0.33625 0.437503 0.344672 0.385376 0.316327 0.397248 0.323045 0.33625 0.280642 0.344672 0.284341 0.316327 0.267878 0.323045 0.272706 0.280642 0.239002 0.284341 0.241876 0.267878 0.231454 0.272706 0.233825 0.239002 0.208314 0.241876 0.210147 0.231454 0.203165 0.233825 0.204841 0.437503 0.344672 0.422612 0.336249 0.397248 0.323045 0.38537 0.316323 0.344672 0.284341 0.336249 0.280639 0.323045 0.272706 0.316323 0.267874 0.284341 0.241876 0.280639 0.239 0.272706 0.233825 0.267874 0.231451 0.241876 0.210147 0.239 0.208312 0.233825 0.204841 0.231451 0.203163 0.422612 0.336249 0.385325 0.316868 0.38537 0.316323 0.353521 0.299142 0.336249 0.280639 0.316868 0.267846 0.316323 0.267874 0.299142 0.25729 0.280639 0.239 0.267846 0.231382 0.267874 0.231451 0.25729 0.224438 0.239 0.208312 0.231382 0.203151 0.231451 0.203163 0.224438 0.198445 0.385325 0.316868 0.337417 0.289456 0.353521 0.299142 0.317047 0.276182 0.316868 0.267846 0.289456 0.250883 0.299142 0.25729 0.276182 0.242119 0.267846 0.231382 0.250883 0.220107 0.25729 0.224438 0.242119 0.214139 0.231382 0.203151 0.220107 0.19543 0.224438 0.198445 0.214139 0.191223 0.453959 0.495319 0.361419 0.382756 0.408779 0.439627 0.336348 0.353601 0.495319 0.496562 0.382756 0.383017 0.439627 0.438326 0.353601 0.353549 0.45689 0.395253 0.362619 0.329392 0.408022 0.363066 0.335844 0.310788 0.395253 0.337417 0.329392 0.294518 0.363066 0.317047 0.310788 0.280647 0.337417 0.289456 0.294518 0.261034 0.317047 0.276182 0.280647 0.251235 0.289456 0.250883 0.261034 0.231692 0.276182 0.242119 0.251235 0.224752 0.250883 0.220107 0.231692 0.206765 0.242119 0.214139 0.224752 0.201789 0.220107 0.19543 0.206765 0.18591 0.214139 0.191223 0.201789 0.182277 0.330149 0.361419 0.277752 0.298914 0.311443 0.336348 0.265969 0.283424 0.361419 0.382756 0.298914 0.310764 0.336348 0.353601 0.283424 0.294233 0.382756 0.383017 0.310764 0.310926 0.353601 0.353549 0.294233 0.294329 0.383017 0.362619 0.310926 0.299566 0.353549 0.335844 0.294329 0.284012 0.362619 0.329392 0.299566 0.280099 0.335844 0.310788 0.284012 0.267995 0.329392 0.294518 0.280099 0.257537 0.310788 0.280647 0.267995 0.248133 0.294518 0.261034 0.257537 0.234352 0.280647 0.251235 0.248133 0.227182 0.261034 0.231692 0.234352 0.212435 0.251235 0.224752 0.227182 0.20705 0.231692 0.206765 0.212435 0.192717 0.224752 0.201789 0.20705 0.18867 0.206765 0.18591 0.192717 0.175094 0.201789 0.182277 0.18867 0.172059 0.266342 0.283781 0.310446 0.335556 0.24991 0.264075 0.284898 0.304913 0.283781 0.294223 0.335556 0.35336 0.264075 0.271727 0.304913 0.316673 0.294223 0.294246 0.35336 0.35349 0.271727 0.271775 0.316673 0.316686 0.294246 0.283522 0.35349 0.336826 0.271775 0.26442 0.316686 0.304939 0.283522 0.267886 0.336826 0.310937 0.26442 0.251157 0.304939 0.285122 0.267886 0.248172 0.310937 0.28067 0.251157 0.234507 0.285122 0.261309 0.248172 0.227199 0.28067 0.251253 0.234507 0.216552 0.261309 0.237058 0.227199 0.207062 0.251253 0.224764 0.216552 0.198901 0.237058 0.214435 0.207062 0.188679 0.224764 0.201798 0.198901 0.182447 0.214435 0.194228 0.188679 0.172067 0.201798 0.182284 0.182447 0.167326 0.194228 0.176657 0.310446 0.335556 0.36399 0.409111 0.284898 0.304913 0.324458 0.354037 0.335556 0.35336 0.409111 0.438037 0.304913 0.316673 0.354037 0.372914 0.35336 0.35349 0.438037 0.437031 0.316673 0.316686 0.372914 0.373092 0.35349 0.336826 0.437031 0.407891 0.316686 0.304939 0.373092 0.353876 0.336826 0.310937 0.407891 0.362998 0.304939 0.285122 0.353876 0.323735 0.310937 0.28067 0.362998 0.317082 0.285122 0.261309 0.323735 0.289895 0.28067 0.251253 0.317082 0.276196 0.261309 0.237058 0.289895 0.257732 0.251253 0.224764 0.276196 0.24213 0.237058 0.214435 0.257732 0.229356 0.224764 0.201798 0.24213 0.214146 0.214435 0.194228 0.229356 0.205167 0.201798 0.182284 0.214146 0.19123 0.194228 0.176657 0.205167 0.184769 0.438037 0.437031 0.549644 0.550087 0.372914 0.373092 0.437706 0.435937 0.362998 0.317082 0.420837 0.353519 0.323735 0.289895 0.362833 0.317057 0.317082 0.276196 0.353519 0.299153 0.289895 0.257732 0.317057 0.276163 0.276196 0.24213 0.299153 0.257297 0.257732 0.229356 0.276163 0.242108 0.24213 0.214146 0.257297 0.224444 0.229356 0.205167 0.242108 0.214163 0.214146 0.19123 0.224444 0.19845 0.205167 0.184769 0.214163 0.191254 0.353519 0.299153 0.385376 0.316327 0.317057 0.276163 0.337498 0.289324 0.299153 0.257297 0.316327 0.267878 0.276163 0.242108 0.289324 0.250865 0.257297 0.224444 0.267878 0.231454 0.242108 0.214163 0.250865 0.220168 0.224444 0.19845 0.231454 0.203165 0.214163 0.191254 0.220168 0.195475 0.385376 0.316327 0.397248 0.323045 0.337498 0.289324 0.345338 0.29397 0.316327 0.267878 0.323045 0.272706 0.289324 0.250865 0.29397 0.254077 0.267878 0.231454 0.272706 0.233825 0.250865 0.220168 0.254077 0.222307 0.231454 0.203165 0.233825 0.204841 0.220168 0.195475 0.222307 0.196934 0.397248 0.323045 0.38537 0.316323 0.345338 0.29397 0.337472 0.289317 0.323045 0.272706 0.316323 0.267874 0.29397 0.254077 0.289317 0.250861 0.272706 0.233825 0.267874 0.231451 0.254077 0.222307 0.250861 0.220165 0.233825 0.204841 0.231451 0.203163 0.222307 0.196934 0.220165 0.195473 0.38537 0.316323 0.353521 0.299142 0.337472 0.289317 0.317018 0.276151 0.316323 0.267874 0.299142 0.25729 0.289317 0.250861 0.276151 0.2421 0.267874 0.231451 0.25729 0.224438 0.250861 0.220165 0.2421 0.214157 0.231451 0.203163 0.224438 0.198445 0.220165 0.195473 0.214157 0.19125 0.42077 0.353521 0.363066 0.317047 0.362879 0.317018 0.323622 0.289877 0.353521 0.299142 0.317047 0.276182 0.317018 0.276151 0.289877 0.257714 0.299142 0.25729 0.276182 0.242119 0.276151 0.2421 0.257714 0.229346 0.25729 0.224438 0.242119 0.214139 0.2421 0.214157 0.229346 0.20516 0.224438 0.198445 0.214139 0.191223 0.214157 0.19125 0.20516 0.184763 0.363371 0.408779 0.311443 0.336348 0.324546 0.354014 0.284907 0.304944 0.408779 0.439627 0.336348 0.353601 0.354014 0.372768 0.304944 0.316758 0.439627 0.438326 0.353601 0.353549 0.372768 0.372892 0.316758 0.316701 0.438326 0.408022 0.353549 0.335844 0.372892 0.35387 0.316701 0.304995 0.408022 0.363066 0.335844 0.310788 0.35387 0.323622 0.304995 0.28507 0.363066 0.317047 0.310788 0.280647 0.323622 0.289877 0.28507 0.261278 0.317047 0.276182 0.280647 0.251235 0.289877 0.257714 0.261278 0.237042 0.276182 0.242119 0.251235 0.224752 0.257714 0.229346 0.237042 0.214424 0.242119 0.214139 0.224752 0.201789 0.229346 0.20516 0.214424 0.194219 0.214139 0.191223 0.201789 0.182277 0.20516 0.184763 0.194219 0.17665 0.311443 0.336348 0.265969 0.283424 0.284907 0.304944 0.250098 0.264216 0.336348 0.353601 0.283424 0.294233 0.304944 0.316758 0.264216 0.27175 0.353601 0.353549 0.294233 0.294329 0.316758 0.316701 0.27175 0.271796 0.353549 0.335844 0.294329 0.284012 0.316701 0.304995 0.271796 0.264314 0.335844 0.310788 0.284012 0.267995 0.304995 0.28507 0.264314 0.251102 0.310788 0.280647 0.267995 0.248133 0.28507 0.261278 0.251102 0.234486 0.280647 0.251235 0.248133 0.227182 0.261278 0.237042 0.234486 0.216535 0.251235 0.224752 0.227182 0.20705 0.237042 0.214424 0.216535 0.19889 0.224752 0.201789 0.20705 0.18867 0.214424 0.194219 0.19889 0.182439 0.201789 0.182277 0.18867 0.172059 0.194219 0.17665 0.182439 0.167319 0.24991 0.264075 0.284898 0.304913 0.231148 0.242096 0.257615 0.272101 0.264075 0.271727 0.304913 0.316673 0.242096 0.247895 0.272101 0.280393 0.271727 0.271775 0.316673 0.316686 0.247895 0.247943 0.280393 0.280427 0.271775 0.26442 0.316686 0.304939 0.247943 0.242266 0.280427 0.27225 0.26442 0.251157 0.304939 0.285122 0.242266 0.231952 0.27225 0.257772 0.251157 0.234507 0.285122 0.261309 0.231952 0.218589 0.257772 0.239762 0.234507 0.216552 0.261309 0.237058 0.218589 0.203817 0.239762 0.220634 0.216552 0.198901 0.237058 0.214435 0.203817 0.188901 0.220634 0.202057 0.198901 0.182447 0.214435 0.194228 0.188901 0.174645 0.202057 0.184897 0.182447 0.167326 0.194228 0.176657 0.174645 0.161275 0.184897 0.16956 0.284898 0.304913 0.324458 0.354037 0.257615 0.272101 0.285058 0.304977 0.304913 0.316673 0.354037 0.372914 0.272101 0.280393 0.304977 0.316535 0.316673 0.316686 0.372914 0.373092 0.280393 0.280427 0.316535 0.316469 0.316686 0.304939 0.373092 0.353876 0.280427 0.27225 0.316469 0.304892 0.304939 0.285122 0.353876 0.323735 0.27225 0.257772 0.304892 0.285077 0.285122 0.261309 0.323735 0.289895 0.257772 0.239762 0.285077 0.261255 0.261309 0.237058 0.289895 0.257732 0.239762 0.220634 0.261255 0.23701 0.237058 0.214435 0.257732 0.229356 0.220634 0.202057 0.23701 0.214412 0.214435 0.194228 0.229356 0.205167 0.202057 0.184897 0.214412 0.194266 0.194228 0.176657 0.205167 0.184769 0.184897 0.16956 0.194266 0.176702 0.324458 0.354037 0.363511 0.408752 0.285058 0.304977 0.311495 0.336275 0.354037 0.372914 0.408752 0.437706 0.304977 0.316535 0.336275 0.353356 0.372914 0.373092 0.437706 0.435937 0.316535 0.316469 0.353356 0.353121 0.373092 0.353876 0.435937 0.408758 0.316469 0.304892 0.353121 0.336012 0.353876 0.323735 0.408758 0.362833 0.304892 0.285077 0.336012 0.31089 0.323735 0.289895 0.362833 0.317057 0.285077 0.261255 0.31089 0.280586 0.289895 0.257732 0.317057 0.276163 0.261255 0.23701 0.280586 0.251182 0.257732 0.229356 0.276163 0.242108 0.23701 0.214412 0.251182 0.224734 0.229356 0.205167 0.242108 0.214163 0.214412 0.194266 0.224734 0.201856 0.205167 0.184769 0.214163 0.191254 0.194266 0.176702 0.201856 0.182353 0.408752 0.437706 0.455427 0.49806 0.336275 0.353356 0.361185 0.382815 0.437706 0.435937 0.49806 0.496076 0.353356 0.353121 0.382815 0.38262 0.435937 0.408758 0.496076 0.453741 0.353121 0.336012 0.38262 0.361384 0.362833 0.317057 0.39519 0.337498 0.31089 0.280586 0.329506 0.294453 0.317057 0.276163 0.337498 0.289324 0.280586 0.251182 0.294453 0.260967 0.276163 0.242108 0.289324 0.250865 0.251182 0.224734 0.260967 0.231669 0.242108 0.214163 0.250865 0.220168 0.224734 0.201856 0.231669 0.206847 0.214163 0.191254 0.220168 0.195475 0.201856 0.182353 0.206847 0.186002 0.395539 0.455427 0.411363 0.476873 0.330456 0.361185 0.337226 0.372281 0.455427 0.49806 0.476873 0.523153 0.361185 0.382815 0.372281 0.394566 0.49806 0.496076 0.523153 0.522642 0.382815 0.38262 0.394566 0.394456 0.496076 0.453741 0.522642 0.471671 0.38262 0.361384 0.394456 0.371997 0.453741 0.39519 0.471671 0.410694 0.361384 0.329506 0.371997 0.338067 0.39519 0.337498 0.410694 0.345338 0.329506 0.294453 0.338067 0.299658 0.337498 0.289324 0.345338 0.29397 0.294453 0.260967 0.299658 0.264494 0.289324 0.250865 0.29397 0.254077 0.260967 0.231669 0.264494 0.234112 0.250865 0.220168 0.254077 0.222307 0.231669 0.206847 0.234112 0.208592 0.220168 0.195475 0.222307 0.196934 0.206847 0.186002 0.208592 0.187267 0.411363 0.476873 0.396064 0.452969 0.337226 0.372281 0.330158 0.361371 0.476873 0.523153 0.452969 0.495326 0.372281 0.394566 0.361371 0.382623 0.523153 0.522642 0.495326 0.496302 0.394566 0.394456 0.382623 0.382874 0.522642 0.471671 0.496302 0.453003 0.394456 0.371997 0.382874 0.363181 0.471671 0.410694 0.453003 0.395125 0.371997 0.338067 0.363181 0.329179 0.410694 0.345338 0.395125 0.337472 0.338067 0.299658 0.329179 0.294446 0.345338 0.29397 0.337472 0.289317 0.299658 0.264494 0.294446 0.260958 0.29397 0.254077 0.289317 0.250861 0.264494 0.234112 0.260958 0.231665 0.254077 0.222307 0.250861 0.220165 0.234112 0.208592 0.231665 0.206845 0.222307 0.196934 0.220165 0.195473 0.208592 0.187267 0.206845 0.186 0.452969 0.495326 0.408844 0.439566 0.361371 0.382623 0.336182 0.353467 0.495326 0.496302 0.439566 0.438327 0.382623 0.382874 0.353467 0.353425 0.395125 0.337472 0.362879 0.317018 0.329179 0.294446 0.310802 0.280556 0.337472 0.289317 0.317018 0.276151 0.294446 0.260958 0.280556 0.251169 0.289317 0.250861 0.276151 0.2421 0.260958 0.231665 0.251169 0.224726 0.250861 0.220165 0.2421 0.214157 0.231665 0.206845 0.224726 0.201852 0.220165 0.195473 0.214157 0.19125 0.206845 0.186 0.201852 0.182349 0.363233 0.408844 0.324546 0.354014 0.311431 0.336182 0.28504 0.305007 0.408844 0.439566 0.354014 0.372768 0.336182 0.353467 0.305007 0.316589 0.439566 0.438327 0.372768 0.372892 0.353467 0.353425 0.316589 0.316532 0.438327 0.407467 0.372892 0.35387 0.353425 0.33619 0.316532 0.304855 0.407467 0.362879 0.35387 0.323622 0.33619 0.310802 0.304855 0.285043 0.362879 0.317018 0.323622 0.289877 0.310802 0.280556 0.285043 0.26123 0.317018 0.276151 0.289877 0.257714 0.280556 0.251169 0.26123 0.236996 0.276151 0.2421 0.257714 0.229346 0.251169 0.224726 0.236996 0.214403 0.2421 0.214157 0.229346 0.20516 0.224726 0.201852 0.214403 0.19426 0.214157 0.19125 0.20516 0.184763 0.201852 0.182349 0.19426 0.176696 0.324546 0.354014 0.284907 0.304944 0.28504 0.305007 0.257654 0.272129 0.354014 0.372768 0.304944 0.316758 0.305007 0.316589 0.272129 0.280398 0.372768 0.372892 0.316758 0.316701 0.316589 0.316532 0.280398 0.280424 0.372892 0.35387 0.316701 0.304995 0.316532 0.304855 0.280424 0.272233 0.35387 0.323622 0.304995 0.28507 0.304855 0.285043 0.272233 0.257752 0.323622 0.289877 0.28507 0.261278 0.285043 0.26123 0.257752 0.239741 0.289877 0.257714 0.261278 0.237042 0.26123 0.236996 0.239741 0.22062 0.257714 0.229346 0.237042 0.214424 0.236996 0.214403 0.22062 0.202047 0.229346 0.20516 0.214424 0.194219 0.214403 0.19426 0.202047 0.18489 0.20516 0.184763 0.194219 0.17665 0.19426 0.176696 0.18489 0.169554 0.284907 0.304944 0.250098 0.264216 0.257654 0.272129 0.231176 0.242126 0.304944 0.316758 0.264216 0.27175 0.272129 0.280398 0.242126 0.247924 0.316758 0.316701 0.27175 0.271796 0.280398 0.280424 0.247924 0.247949 0.316701 0.304995 0.271796 0.264314 0.280424 0.272233 0.247949 0.242266 0.304995 0.28507 0.264314 0.251102 0.272233 0.257752 0.242266 0.231934 0.28507 0.261278 0.