<?xml version="1.0" ?> 
<!-- 
# vtk DataFile Version 3.0
#This file was generated by the deal.II library on 16:49:08 at 2019/11/27
-->
<VTKFile type="UnstructuredGrid" version="0.1" byte_order="LittleEndian">
<UnstructuredGrid>
<Piece NumberOfPoints="9568" NumberOfCells="1196" >
  <Points>
    <DataArray type="Float32" NumberOfComponents="3" format="ascii">
-50 -50 0
-40 -50 0
-50 -40 0
-40 -40 0
-50 -50 10
-40 -50 10
-50 -40 10
-40 -40 10
-40 -50 0
-30 -50 0
-40 -40 0
-30 -40 0
-40 -50 10
-30 -50 10
-40 -40 10
-30 -40 10
-30 -50 0
-20 -50 0
-30 -40 0
-20 -40 0
-30 -50 10
-20 -50 10
-30 -40 10
-20 -40 10
-20 -50 0
-10 -50 0
-20 -40 0
-10 -40 0
-20 -50 10
-10 -50 10
-20 -40 10
-10 -40 10
-10 -50 0
0 -50 0
-10 -40 0
0 -40 0
-10 -50 10
0 -50 10
-10 -40 10
0 -40 10
0 -50 0
10 -50 0
0 -40 0
10 -40 0
0 -50 10
10 -50 10
0 -40 10
10 -40 10
10 -50 0
20 -50 0
10 -40 0
20 -40 0
10 -50 10
20 -50 10
10 -40 10
20 -40 10
20 -50 0
30 -50 0
20 -40 0
30 -40 0
20 -50 10
30 -50 10
20 -40 10
30 -40 10
30 -50 0
40 -50 0
30 -40 0
40 -40 0
30 -50 10
40 -50 10
30 -40 10
40 -40 10
40 -50 0
50 -50 0
40 -40 0
50 -40 0
40 -50 10
50 -50 10
40 -40 10
50 -40 10
-50 -40 0
-40 -40 0
-50 -30 0
-40 -30 0
-50 -40 10
-40 -40 10
-50 -30 10
-40 -30 10
-40 -40 0
-30 -40 0
-40 -30 0
-30 -30 0
-40 -40 10
-30 -40 10
-40 -30 10
-30 -30 10
-30 -40 0
-20 -40 0
-30 -30 0
-20 -30 0
-30 -40 10
-20 -40 10
-30 -30 10
-20 -30 10
-20 -40 0
-10 -40 0
-20 -30 0
-10 -30 0
-20 -40 10
-10 -40 10
-20 -30 10
-10 -30 10
-10 -40 0
0 -40 0
-10 -30 0
0 -30 0
-10 -40 10
0 -40 10
-10 -30 10
0 -30 10
0 -40 0
10 -40 0
0 -30 0
10 -30 0
0 -40 10
10 -40 10
0 -30 10
10 -30 10
10 -40 0
20 -40 0
10 -30 0
20 -30 0
10 -40 10
20 -40 10
10 -30 10
20 -30 10
20 -40 0
30 -40 0
20 -30 0
30 -30 0
20 -40 10
30 -40 10
20 -30 10
30 -30 10
30 -40 0
40 -40 0
30 -30 0
40 -30 0
30 -40 10
40 -40 10
30 -30 10
40 -30 10
40 -40 0
50 -40 0
40 -30 0
50 -30 0
40 -40 10
50 -40 10
40 -30 10
50 -30 10
-50 -30 0
-40 -30 0
-50 -20 0
-40 -20 0
-50 -30 10
-40 -30 10
-50 -20 10
-40 -20 10
-40 -30 0
-30 -30 0
-40 -20 0
-30 -20 0
-40 -30 10
-30 -30 10
-40 -20 10
-30 -20 10
-30 -30 0
-20 -30 0
-30 -20 0
-20 -20 0
-30 -30 10
-20 -30 10
-30 -20 10
-20 -20 10
-20 -30 0
-10 -30 0
-20 -20 0
-10 -20 0
-20 -30 10
-10 -30 10
-20 -20 10
-10 -20 10
-10 -30 0
0 -30 0
-10 -20 0
0 -20 0
-10 -30 10
0 -30 10
-10 -20 10
0 -20 10
0 -30 0
10 -30 0
0 -20 0
10 -20 0
0 -30 10
10 -30 10
0 -20 10
10 -20 10
10 -30 0
20 -30 0
10 -20 0
20 -20 0
10 -30 10
20 -30 10
10 -20 10
20 -20 10
20 -30 0
30 -30 0
20 -20 0
30 -20 0
20 -30 10
30 -30 10
20 -20 10
30 -20 10
30 -30 0
40 -30 0
30 -20 0
40 -20 0
30 -30 10
40 -30 10
30 -20 10
40 -20 10
40 -30 0
50 -30 0
40 -20 0
50 -20 0
40 -30 10
50 -30 10
40 -20 10
50 -20 10
-50 -20 0
-40 -20 0
-50 -10 0
-40 -10 0
-50 -20 10
-40 -20 10
-50 -10 10
-40 -10 10
-40 -20 0
-30 -20 0
-40 -10 0
-30 -10 0
-40 -20 10
-30 -20 10
-40 -10 10
-30 -10 10
-30 -20 0
-20 -20 0
-30 -10 0
-20 -10 0
-30 -20 10
-20 -20 10
-30 -10 10
-20 -10 10
-20 -20 0
-10 -20 0
-20 -10 0
-10 -10 0
-20 -20 10
-10 -20 10
-20 -10 10
-10 -10 10
-10 -20 0
0 -20 0
-10 -10 0
0 -10 0
-10 -20 10
0 -20 10
-10 -10 10
0 -10 10
0 -20 0
10 -20 0
0 -10 0
10 -10 0
0 -20 10
10 -20 10
0 -10 10
10 -10 10
10 -20 0
20 -20 0
10 -10 0
20 -10 0
10 -20 10
20 -20 10
10 -10 10
20 -10 10
20 -20 0
30 -20 0
20 -10 0
30 -10 0
20 -20 10
30 -20 10
20 -10 10
30 -10 10
30 -20 0
40 -20 0
30 -10 0
40 -10 0
30 -20 10
40 -20 10
30 -10 10
40 -10 10
40 -20 0
50 -20 0
40 -10 0
50 -10 0
40 -20 10
50 -20 10
40 -10 10
50 -10 10
-50 -10 0
-40 -10 0
-50 0 0
-40 0 0
-50 -10 10
-40 -10 10
-50 0 10
-40 0 10
-40 -10 0
-30 -10 0
-40 0 0
-30 0 0
-40 -10 10
-30 -10 10
-40 0 10
-30 0 10
-30 -10 0
-20 -10 0
-30 0 0
-20 0 0
-30 -10 10
-20 -10 10
-30 0 10
-20 0 10
40 -10 0
50 -10 0
40 0 0
50 0 0
40 -10 10
50 -10 10
40 0 10
50 0 10
-50 0 0
-40 0 0
-50 10 0
-40 10 0
-50 0 10
-40 0 10
-50 10 10
-40 10 10
-40 0 0
-30 0 0
-40 10 0
-30 10 0
-40 0 10
-30 0 10
-40 10 10
-30 10 10
-30 0 0
-20 0 0
-30 10 0
-20 10 0
-30 0 10
-20 0 10
-30 10 10
-20 10 10
40 0 0
50 0 0
40 10 0
50 10 0
40 0 10
50 0 10
40 10 10
50 10 10
-50 10 0
-40 10 0
-50 20 0
-40 20 0
-50 10 10
-40 10 10
-50 20 10
-40 20 10
-40 10 0
-30 10 0
-40 20 0
-30 20 0
-40 10 10
-30 10 10
-40 20 10
-30 20 10
-30 10 0
-20 10 0
-30 20 0
-20 20 0
-30 10 10
-20 10 10
-30 20 10
-20 20 10
-20 10 0
-10 10 0
-20 20 0
-10 20 0
-20 10 10
-10 10 10
-20 20 10
-10 20 10
-10 10 0
0 10 0
-10 20 0
0 20 0
-10 10 10
0 10 10
-10 20 10
0 20 10
0 10 0
10 10 0
0 20 0
10 20 0
0 10 10
10 10 10
0 20 10
10 20 10
10 10 0
20 10 0
10 20 0
20 20 0
10 10 10
20 10 10
10 20 10
20 20 10
20 10 0
30 10 0
20 20 0
30 20 0
20 10 10
30 10 10
20 20 10
30 20 10
30 10 0
40 10 0
30 20 0
40 20 0
30 10 10
40 10 10
30 20 10
40 20 10
40 10 0
50 10 0
40 20 0
50 20 0
40 10 10
50 10 10
40 20 10
50 20 10
-50 20 0
-40 20 0
-50 30 0
-40 30 0
-50 20 10
-40 20 10
-50 30 10
-40 30 10
-40 20 0
-30 20 0
-40 30 0
-30 30 0
-40 20 10
-30 20 10
-40 30 10
-30 30 10
-30 20 0
-20 20 0
-30 30 0
-20 30 0
-30 20 10
-20 20 10
-30 30 10
-20 30 10
-20 20 0
-10 20 0
-20 30 0
-10 30 0
-20 20 10
-10 20 10
-20 30 10
-10 30 10
-10 20 0
0 20 0
-10 30 0
0 30 0
-10 20 10
0 20 10
-10 30 10
0 30 10
0 20 0
10 20 0
0 30 0
10 30 0
0 20 10
10 20 10
0 30 10
10 30 10
10 20 0
20 20 0
10 30 0
20 30 0
10 20 10
20 20 10
10 30 10
20 30 10
20 20 0
30 20 0
20 30 0
30 30 0
20 20 10
30 20 10
20 30 10
30 30 10
30 20 0
40 20 0
30 30 0
40 30 0
30 20 10
40 20 10
30 30 10
40 30 10
40 20 0
50 20 0
40 30 0
50 30 0
40 20 10
50 20 10
40 30 10
50 30 10
-50 30 0
-40 30 0
-50 40 0
-40 40 0
-50 30 10
-40 30 10
-50 40 10
-40 40 10
-40 30 0
-30 30 0
-40 40 0
-30 40 0
-40 30 10
-30 30 10
-40 40 10
-30 40 10
-30 30 0
-20 30 0
-30 40 0
-20 40 0
-30 30 10
-20 30 10
-30 40 10
-20 40 10
-20 30 0
-10 30 0
-20 40 0
-10 40 0
-20 30 10
-10 30 10
-20 40 10
-10 40 10
-10 30 0
0 30 0
-10 40 0
0 40 0
-10 30 10
0 30 10
-10 40 10
0 40 10
0 30 0
10 30 0
0 40 0
10 40 0
0 30 10
10 30 10
0 40 10
10 40 10
10 30 0
20 30 0
10 40 0
20 40 0
10 30 10
20 30 10
10 40 10
20 40 10
20 30 0
30 30 0
20 40 0
30 40 0
20 30 10
30 30 10
20 40 10
30 40 10
30 30 0
40 30 0
30 40 0
40 40 0
30 30 10
40 30 10
30 40 10
40 40 10
40 30 0
50 30 0
40 40 0
50 40 0
40 30 10
50 30 10
40 40 10
50 40 10
-50 40 0
-40 40 0
-50 50 0
-40 50 0
-50 40 10
-40 40 10
-50 50 10
-40 50 10
-40 40 0
-30 40 0
-40 50 0
-30 50 0
-40 40 10
-30 40 10
-40 50 10
-30 50 10
-30 40 0
-20 40 0
-30 50 0
-20 50 0
-30 40 10
-20 40 10
-30 50 10
-20 50 10
-20 40 0
-10 40 0
-20 50 0
-10 50 0
-20 40 10
-10 40 10
-20 50 10
-10 50 10
-10 40 0
0 40 0
-10 50 0
0 50 0
-10 40 10
0 40 10
-10 50 10
0 50 10
0 40 0
10 40 0
0 50 0
10 50 0
0 40 10
10 40 10
0 50 10
10 50 10
10 40 0
20 40 0
10 50 0
20 50 0
10 40 10
20 40 10
10 50 10
20 50 10
20 40 0
30 40 0
20 50 0
30 50 0
20 40 10
30 40 10
20 50 10
30 50 10
30 40 0
40 40 0
30 50 0
40 50 0
30 40 10
40 40 10
30 50 10
40 50 10
40 40 0
50 40 0
40 50 0
50 50 0
40 40 10
50 40 10
40 50 10
50 50 10
-50 -50 10
-40 -50 10
-50 -40 10
-40 -40 10
-50 -50 20
-40 -50 20
-50 -40 20
-40 -40 20
-40 -50 10
-30 -50 10
-40 -40 10
-30 -40 10
-40 -50 20
-30 -50 20
-40 -40 20
-30 -40 20
-30 -50 10
-20 -50 10
-30 -40 10
-20 -40 10
-30 -50 20
-20 -50 20
-30 -40 20
-20 -40 20
-20 -50 10
-10 -50 10
-20 -40 10
-10 -40 10
-20 -50 20
-10 -50 20
-20 -40 20
-10 -40 20
-10 -50 10
0 -50 10
-10 -40 10
0 -40 10
-10 -50 20
0 -50 20
-10 -40 20
0 -40 20
0 -50 10
10 -50 10
0 -40 10
10 -40 10
0 -50 20
10 -50 20
0 -40 20
10 -40 20
10 -50 10
20 -50 10
10 -40 10
20 -40 10
10 -50 20
20 -50 20
10 -40 20
20 -40 20
20 -50 10
30 -50 10
20 -40 10
30 -40 10
20 -50 20
30 -50 20
20 -40 20
30 -40 20
30 -50 10
40 -50 10
30 -40 10
40 -40 10
30 -50 20
40 -50 20
30 -40 20
40 -40 20
40 -50 10
50 -50 10
40 -40 10
50 -40 10
40 -50 20
50 -50 20
40 -40 20
50 -40 20
-50 -40 10
-40 -40 10
-50 -30 10
-40 -30 10
-50 -40 20
-40 -40 20
-50 -30 20
-40 -30 20
-40 -40 10
-30 -40 10
-40 -30 10
-30 -30 10
-40 -40 20
-30 -40 20
-40 -30 20
-30 -30 20
-30 -40 10
-20 -40 10
-30 -30 10
-20 -30 10
-30 -40 20
-20 -40 20
-30 -30 20
-20 -30 20
-20 -40 10
-10 -40 10
-20 -30 10
-10 -30 10
-20 -40 20
-10 -40 20
-20 -30 20
-10 -30 20
-10 -40 10
0 -40 10
-10 -30 10
0 -30 10
-10 -40 20
0 -40 20
-10 -30 20
0 -30 20
0 -40 10
10 -40 10
0 -30 10
10 -30 10
0 -40 20
10 -40 20
0 -30 20
10 -30 20
10 -40 10
20 -40 10
10 -30 10
20 -30 10
10 -40 20
20 -40 20
10 -30 20
20 -30 20
20 -40 10
30 -40 10
20 -30 10
30 -30 10
20 -40 20
30 -40 20
20 -30 20
30 -30 20
30 -40 10
40 -40 10
30 -30 10
40 -30 10
30 -40 20
40 -40 20
30 -30 20
40 -30 20
40 -40 10
50 -40 10
40 -30 10
50 -30 10
40 -40 20
50 -40 20
40 -30 20
50 -30 20
-50 -30 10
-40 -30 10
-50 -20 10
-40 -20 10
-50 -30 20
-40 -30 20
-50 -20 20
-40 -20 20
-40 -30 10
-30 -30 10
-40 -20 10
-30 -20 10
-40 -30 20
-30 -30 20
-40 -20 20
-30 -20 20
-30 -30 10
-20 -30 10
-30 -20 10
-20 -20 10
-30 -30 20
-20 -30 20
-30 -20 20
-20 -20 20
-20 -30 10
-10 -30 10
-20 -20 10
-10 -20 10
-20 -30 20
-10 -30 20
-20 -20 20
-10 -20 20
-10 -30 10
0 -30 10
-10 -20 10
0 -20 10
-10 -30 20
0 -30 20
-10 -20 20
0 -20 20
0 -30 10
10 -30 10
0 -20 10
10 -20 10
0 -30 20
10 -30 20
0 -20 20
10 -20 20
10 -30 10
20 -30 10
10 -20 10
20 -20 10
10 -30 20
20 -30 20
10 -20 20
20 -20 20
20 -30 10
30 -30 10
20 -20 10
30 -20 10
20 -30 20
30 -30 20
20 -20 20
30 -20 20
30 -30 10
40 -30 10
30 -20 10
40 -20 10
30 -30 20
40 -30 20
30 -20 20
40 -20 20
40 -30 10
50 -30 10
40 -20 10
50 -20 10
40 -30 20
50 -30 20
40 -20 20
50 -20 20
-50 -20 10
-40 -20 10
-50 -10 10
-40 -10 10
-50 -20 20
-40 -20 20
-50 -10 20
-40 -10 20
-40 -20 10
-30 -20 10
-40 -10 10
-30 -10 10
-40 -20 20
-30 -20 20
-40 -10 20
-30 -10 20
-30 -20 10
-20 -20 10
-30 -10 10
-20 -10 10
-30 -20 20
-20 -20 20
-30 -10 20
-20 -10 20
-20 -20 10
-10 -20 10
-20 -10 10
-10 -10 10
-20 -20 20
-10 -20 20
-20 -10 20
-10 -10 20
-10 -20 10
0 -20 10
-10 -10 10
0 -10 10
-10 -20 20
0 -20 20
-10 -10 20
0 -10 20
0 -20 10
10 -20 10
0 -10 10
10 -10 10
0 -20 20
10 -20 20
0 -10 20
10 -10 20
10 -20 10
20 -20 10
10 -10 10
20 -10 10
10 -20 20
20 -20 20
10 -10 20
20 -10 20
[...]
  <PointData Scalars="scalars">
    <DataArray type="Float32" Name="u" format="ascii">
0.168734 0.18552 0.178263 0.19784 0.167823 0.184305 0.177188 0.19637 0.18552 0.204572 0.19784 0.221425 0.184305 0.202947 0.19637 0.219372 0.204572 0.226189 0.221425 0.249631 0.202947 0.224004 0.219372 0.246711 0.226189 0.249813 0.249631 0.282792 0.224004 0.246908 0.246711 0.278578 0.249813 0.273743 0.282792 0.319571 0.246908 0.270006 0.278578 0.31363 0.273743 0.294925 0.319571 0.355463 0.270006 0.290405 0.31363 0.347534 0.294925 0.309648 0.355463 0.382662 0.290405 0.304566 0.347534 0.373092 0.309648 0.314862 0.382662 0.392897 0.304566 0.309573 0.373092 0.382749 0.314862 0.309118 0.392897 0.382434 0.309573 0.304095 0.382749 0.372928 0.309118 0.292043 0.382434 0.354211 0.304095 0.287838 0.372928 0.346548 0.178263 0.19784 0.186467 0.209255 0.177188 0.19637 0.185244 0.207526 0.19784 0.221425 0.209255 0.237693 0.19637 0.219372 0.207526 0.235175 0.221425 0.249631 0.237693 0.273701 0.219372 0.246711 0.235175 0.269889 0.249631 0.282792 0.273701 0.319636 0.246711 0.278578 0.269889 0.313673 0.282792 0.319571 0.319636 0.377557 0.278578 0.31363 0.313673 0.367743 0.319571 0.355463 0.377557 0.442423 0.31363 0.347534 0.367743 0.427628 0.355463 0.382662 0.442423 0.497171 0.347534 0.373092 0.427628 0.477462 0.382662 0.392897 0.497171 0.520348 0.373092 0.382749 0.477462 0.497804 0.392897 0.382434 0.520348 0.498767 0.382749 0.372928 0.497804 0.47873 0.382434 0.354211 0.498767 0.443285 0.372928 0.346548 0.47873 0.428938 0.186467 0.209255 0.192973 0.218618 0.185244 0.207526 0.191626 0.216654 0.209255 0.237693 0.218618 0.251659 0.207526 0.235175 0.216654 0.248686 0.237693 0.273701 0.251659 0.295505 0.235175 0.269889 0.248686 0.290809 0.273701 0.319636 0.295505 0.356045 0.269889 0.313673 0.290809 0.347914 0.319636 0.377557 0.356045 0.442399 0.313673 0.367743 0.347914 0.427677 0.377557 0.442423 0.442399 0.569843 0.367743 0.427628 0.427677 0.537521 0.442423 0.497171 0.569843 0.7047 0.427628 0.477462 0.537521 0.654513 0.497171 0.520348 0.7047 0.757109 0.477462 0.497804 0.654513 0.705537 0.520348 0.498767 0.757109 0.707963 0.497804 0.47873 0.705537 0.658318 0.498767 0.443285 0.707963 0.580018 0.47873 0.428938 0.658318 0.545228 0.192973 0.218618 0.197178 0.224819 0.191626 0.216654 0.195744 0.222699 0.218618 0.251659 0.224819 0.261336 0.216654 0.248686 0.222699 0.257973 0.251659 0.295505 0.261336 0.311573 0.248686 0.290809 0.257973 0.305865 0.295505 0.356045 0.311573 0.383679 0.290809 0.347914 0.305865 0.374204 0.356045 0.442399 0.383679 0.499167 0.347914 0.427677 0.374204 0.478505 0.442399 0.569843 0.499167 0.699917 0.427677 0.537521 0.478505 0.653859 0.569843 0.7047 0.699917 1.14656 0.537521 0.654513 0.653859 0.945968 0.7047 0.757109 1.14656 1.5349 0.654513 0.705537 0.945968 1.16534 0.757109 0.707963 1.5349 1.16518 0.705537 0.658318 1.16534 0.951961 0.707963 0.580018 1.16518 0.709285 0.658318 0.545228 0.951961 0.664598 0.197178 0.224819 0.198629 0.227016 0.195744 0.222699 0.197172 0.224815 0.224819 0.261336 0.227016 0.26466 0.222699 0.257973 0.224815 0.261329 0.261336 0.311573 0.26466 0.319236 0.257973 0.305865 0.261329 0.311564 1.16518 0.709285 1.53262 0.746133 0.951961 0.664598 1.16573 0.709067 0.198629 0.227016 0.197178 0.224819 0.197172 0.224815 0.195744 0.222699 0.227016 0.26466 0.224819 0.261336 0.224815 0.261329 0.222699 0.257973 0.26466 0.319236 0.261336 0.311574 0.261329 0.311564 0.257973 0.305866 1.53262 0.746133 1.16529 0.709277 1.16573 0.709067 0.951923 0.664611 0.197178 0.224819 0.192973 0.218618 0.195744 0.222699 0.191626 0.216654 0.224819 0.261336 0.218618 0.25166 0.222699 0.257973 0.216654 0.248686 0.261336 0.311574 0.25166 0.295505 0.257973 0.305866 0.248686 0.290809 0.311574 0.383679 0.295505 0.356046 0.305866 0.374204 0.290809 0.347914 0.383679 0.499169 0.356046 0.4424 0.374204 0.478505 0.347914 0.427678 0.499169 0.699915 0.4424 0.569848 0.478505 0.653865 0.427678 0.537522 0.699915 1.14664 0.569848 0.704705 0.653865 0.945942 0.537522 0.654517 1.14664 1.5351 0.704705 0.757106 0.945942 1.16524 0.654517 0.70555 1.5351 1.16529 0.757106 0.707967 1.16524 0.951923 0.70555 0.658324 1.16529 0.709277 0.707967 0.58003 0.951923 0.664611 0.658324 0.545228 0.192973 0.218618 0.186467 0.209255 0.191626 0.216654 0.185244 0.207526 0.218618 0.25166 0.209255 0.237693 0.216654 0.248686 0.207526 0.235176 0.25166 0.295505 0.237693 0.273701 0.248686 0.290809 0.235176 0.269889 0.295505 0.356046 0.273701 0.319637 0.290809 0.347914 0.269889 0.313673 0.356046 0.4424 0.319637 0.377557 0.347914 0.427678 0.313673 0.367744 0.4424 0.569848 0.377557 0.442424 0.427678 0.537522 0.367744 0.427629 0.569848 0.704705 0.442424 0.497172 0.537522 0.654517 0.427629 0.477463 0.704705 0.757106 0.497172 0.520351 0.654517 0.70555 0.477463 0.497804 0.757106 0.707967 0.520351 0.49877 0.70555 0.658324 0.497804 0.478731 0.707967 0.58003 0.49877 0.443287 0.658324 0.545228 0.478731 0.42894 0.186467 0.209255 0.178263 0.19784 0.185244 0.207526 0.177188 0.19637 0.209255 0.237693 0.19784 0.221425 0.207526 0.235176 0.19637 0.219372 0.237693 0.273701 0.221425 0.249632 0.235176 0.269889 0.219372 0.246711 0.273701 0.319637 0.249632 0.282792 0.269889 0.313673 0.246711 0.278579 0.319637 0.377557 0.282792 0.319571 0.313673 0.367744 0.278579 0.31363 0.377557 0.442424 0.319571 0.355463 0.367744 0.427629 0.31363 0.347535 0.442424 0.497172 0.355463 0.382663 0.427629 0.477463 0.347535 0.373093 0.497172 0.520351 0.382663 0.392898 0.477463 0.497804 0.373093 0.38275 0.520351 0.49877 0.392898 0.382434 0.497804 0.478731 0.38275 0.372929 0.49877 0.443287 0.382434 0.354212 0.478731 0.42894 0.372929 0.346549 0.178263 0.19784 0.168734 0.18552 0.177188 0.19637 0.167824 0.184305 0.19784 0.221425 0.18552 0.204572 0.19637 0.219372 0.184305 0.202947 0.221425 0.249632 0.204572 0.226189 0.219372 0.246711 0.202947 0.224004 0.249632 0.282792 0.226189 0.249814 0.246711 0.278579 0.224004 0.246908 0.282792 0.319571 0.249814 0.273743 0.278579 0.31363 0.246908 0.270006 0.319571 0.355463 0.273743 0.294926 0.31363 0.347535 0.270006 0.290405 0.355463 0.382663 0.294926 0.309649 0.347535 0.373093 0.290405 0.304567 0.382663 0.392898 0.309649 0.314863 0.373093 0.38275 0.304567 0.309573 0.392898 0.382434 0.314863 0.309118 0.38275 0.372929 0.309573 0.304095 0.382434 0.354212 0.309118 0.292043 0.372929 0.346549 0.304095 0.287839 0.167823 0.184305 0.177188 0.19637 0.165172 0.180789 0.174068 0.192138 0.184305 0.202947 0.19637 0.219372 0.180789 0.198277 0.192138 0.213518 0.202947 0.224004 0.219372 0.246711 0.198277 0.217783 0.213518 0.238483 0.224004 0.246908 0.246711 0.278578 0.217783 0.238704 0.238483 0.266919 0.246908 0.270006 0.278578 0.31363 0.238704 0.259541 0.266919 0.297408 0.270006 0.290405 0.31363 0.347534 0.259541 0.277773 0.297408 0.32626 0.290405 0.304566 0.347534 0.373092 0.277773 0.290387 0.32626 0.347591 0.304566 0.309573 0.373092 0.382749 0.290387 0.294848 0.347591 0.355588 0.309573 0.304095 0.382749 0.372928 0.294848 0.290054 0.355588 0.347484 0.304095 0.287838 0.372928 0.346548 0.290054 0.275904 0.347484 0.32581 0.177188 0.19637 0.185244 0.207526 0.174068 0.192138 0.181702 0.202568 0.19637 0.219372 0.207526 0.235175 0.192138 0.213518 0.202568 0.228042 0.219372 0.246711 0.235175 0.269889 0.213518 0.238483 0.228042 0.259288 0.246711 0.278578 0.269889 0.313673 0.238483 0.266919 0.259288 0.297382 0.278578 0.31363 0.313673 0.367743 0.266919 0.297408 0.297382 0.342168 0.31363 0.347534 0.367743 0.427628 0.297408 0.32626 0.342168 0.38939 0.347534 0.373092 0.427628 0.477462 0.32626 0.347591 0.38939 0.427846 0.373092 0.382749 0.477462 0.497804 0.347591 0.355588 0.427846 0.443049 0.382749 0.372928 0.497804 0.47873 0.355588 0.347484 0.443049 0.42873 0.372928 0.346548 0.47873 0.428938 0.347484 0.32581 0.42873 0.390701 0.185244 0.207526 0.191626 0.216654 0.181702 0.202568 0.187733 0.211051 0.207526 0.235175 0.216654 0.248686 0.202568 0.228042 0.211051 0.240331 0.235175 0.269889 0.248686 0.290809 0.228042 0.259288 0.240331 0.27777 0.269889 0.313673 0.290809 0.347914 0.259288 0.297382 0.27777 0.326377 0.313673 0.367743 0.347914 0.427677 0.297382 0.342168 0.326377 0.389423 0.367743 0.427628 0.427677 0.537521 0.342168 0.38939 0.389423 0.465724 0.427628 0.477462 0.537521 0.654513 0.38939 0.427846 0.465724 0.538458 0.477462 0.497804 0.654513 0.705537 0.427846 0.443049 0.538458 0.571973 0.497804 0.47873 0.705537 0.658318 0.443049 0.42873 0.571973 0.54058 0.47873 0.428938 0.658318 0.545228 0.42873 0.390701 0.54058 0.469944 0.191626 0.216654 0.195744 0.222699 0.187733 0.211051 0.191616 0.216644 0.216654 0.248686 0.222699 0.257973 0.211051 0.240331 0.216644 0.248666 0.248686 0.290809 0.257973 0.305865 0.240331 0.27777 0.248666 0.290779 0.290809 0.347914 0.305865 0.374204 0.27777 0.326377 0.290779 0.347882 0.347914 0.427677 0.374204 0.478505 0.326377 0.389423 0.347882 0.427659 0.427677 0.537521 0.478505 0.653859 0.389423 0.465724 0.427659 0.537553 0.537521 0.654513 0.653859 0.945968 0.465724 0.538458 0.537553 0.654667 0.654513 0.705537 0.945968 1.16534 0.538458 0.571973 0.654667 0.70578 0.705537 0.658318 1.16534 0.951961 0.571973 0.54058 0.70578 0.658447 0.658318 0.545228 0.951961 0.664598 0.54058 0.469944 0.658447 0.545123 0.195744 0.222699 0.197172 0.224815 0.191616 0.216644 0.192958 0.218603 0.222699 0.257973 0.224815 0.261329 0.216644 0.248666 0.218603 0.251633 0.257973 0.305865 0.261329 0.311564 0.248666 0.290779 0.251633 0.295466 0.305865 0.374204 0.311564 0.383669 0.290779 0.347882 0.295466 0.356005 0.374204 0.478505 0.383669 0.49917 0.347882 0.427659 0.356005 0.442375 0.478505 0.653859 0.49917 0.69988 0.427659 0.537553 0.442375 0.569919 0.653859 0.945968 0.69988 1.14744 0.537553 0.654667 0.569919 0.704914 0.945968 1.16534 1.14744 1.53732 0.654667 0.70578 0.704914 0.757279 1.16534 0.951961 1.53732 1.16573 0.70578 0.658447 0.757279 0.708158 0.951961 0.664598 1.16573 0.709067 0.658447 0.545123 0.708158 0.579828 0.197172 0.224815 0.195744 0.222699 0.192958 0.218603 0.191616 0.216644 0.224815 0.261329 0.222699 0.257973 0.218603 0.251633 0.216644 0.248666 0.261329 0.311564 0.257973 0.305866 0.251633 0.295466 0.248666 0.290779 0.311564 0.383669 0.305866 0.374204 0.295466 0.356005 0.290779 0.347882 0.383669 0.49917 0.374204 0.478505 0.356005 0.442375 0.347882 0.427659 0.49917 0.69988 0.478505 0.653865 0.442375 0.569919 0.427659 0.537551 0.69988 1.14744 0.653865 0.945942 0.569919 0.704914 0.537551 0.654661 1.14744 1.53732 0.945942 1.16524 0.704914 0.757279 0.654661 0.705776 1.53732 1.16573 1.16524 0.951923 0.757279 0.708158 0.705776 0.658441 1.16573 0.709067 0.951923 0.664611 0.708158 0.579828 0.658441 0.545117 0.195744 0.222699 0.191626 0.216654 0.191616 0.216644 0.187733 0.211051 0.222699 0.257973 0.216654 0.248686 0.216644 0.248666 0.211051 0.240332 0.257973 0.305866 0.248686 0.290809 0.248666 0.290779 0.240332 0.27777 0.305866 0.374204 0.290809 0.347914 0.290779 0.347882 0.27777 0.326377 0.374204 0.478505 0.347914 0.427678 0.347882 0.427659 0.326377 0.389423 0.478505 0.653865 0.427678 0.537522 0.427659 0.537551 0.389423 0.465723 0.653865 0.945942 0.537522 0.654517 0.537551 0.654661 0.465723 0.538453 0.945942 1.16524 0.654517 0.70555 0.654661 0.705776 0.538453 0.571963 1.16524 0.951923 0.70555 0.658324 0.705776 0.658441 0.571963 0.540575 0.951923 0.664611 0.658324 0.545228 0.658441 0.545117 0.540575 0.469942 0.191626 0.216654 0.185244 0.207526 0.187733 0.211051 0.181703 0.202568 0.216654 0.248686 0.207526 0.235176 0.211051 0.240332 0.202568 0.228042 0.248686 0.290809 0.235176 0.269889 0.240332 0.27777 0.228042 0.259288 0.290809 0.347914 0.269889 0.313673 0.27777 0.326377 0.259288 0.297382 0.347914 0.427678 0.313673 0.367744 0.326377 0.389423 0.297382 0.342168 0.427678 0.537522 0.367744 0.427629 0.389423 0.465723 0.342168 0.389389 0.537522 0.654517 0.427629 0.477463 0.465723 0.538453 0.389389 0.427846 0.654517 0.70555 0.477463 0.497804 0.538453 0.571963 0.427846 0.443049 0.70555 0.658324 0.497804 0.478731 0.571963 0.540575 0.443049 0.42873 0.658324 0.545228 0.478731 0.42894 0.540575 0.469942 0.42873 0.3907 0.185244 0.207526 0.177188 0.19637 0.181703 0.202568 0.174068 0.192138 0.207526 0.235176 0.19637 0.219372 0.202568 0.228042 0.192138 0.213518 0.235176 0.269889 0.219372 0.246711 0.228042 0.259288 0.213518 0.238483 0.269889 0.313673 0.246711 0.278579 0.259288 0.297382 0.238483 0.266919 0.313673 0.367744 0.278579 0.31363 0.297382 0.342168 0.266919 0.297408 0.367744 0.427629 0.31363 0.347535 0.342168 0.389389 0.297408 0.32626 0.427629 0.477463 0.347535 0.373093 0.389389 0.427846 0.32626 0.347591 0.477463 0.497804 0.373093 0.38275 0.427846 0.443049 0.347591 0.355588 0.497804 0.478731 0.38275 0.372929 0.443049 0.42873 0.355588 0.347484 0.478731 0.42894 0.372929 0.346549 0.42873 0.3907 0.347484 0.32581 0.177188 0.19637 0.167824 0.184305 0.174068 0.192138 0.165172 0.180789 0.19637 0.219372 0.184305 0.202947 0.192138 0.213518 0.180789 0.198278 0.219372 0.246711 0.202947 0.224004 0.213518 0.238483 0.198278 0.217783 0.246711 0.278579 0.224004 0.246908 0.238483 0.266919 0.217783 0.238704 0.278579 0.31363 0.246908 0.270006 0.266919 0.297408 0.238704 0.259541 0.31363 0.347535 0.270006 0.290405 0.297408 0.32626 0.259541 0.277773 0.347535 0.373093 0.290405 0.304567 0.32626 0.347591 0.277773 0.290387 0.373093 0.38275 0.304567 0.309573 0.347591 0.355588 0.290387 0.294848 0.38275 0.372929 0.309573 0.304095 0.355588 0.347484 0.294848 0.290054 0.372929 0.346549 0.304095 0.287839 0.347484 0.32581 0.290054 0.275905 0.165172 0.180789 0.174068 0.192138 0.160996 0.175323 0.169191 0.185623 0.180789 0.198277 0.192138 0.213518 0.175323 0.191123 0.185623 0.20467 0.198277 0.217783 0.213518 0.238483 0.191123 0.208405 0.20467 0.226331 0.217783 0.238704 0.238483 0.266919 0.208405 0.226546 0.226331 0.2502 0.238704 0.259541 0.266919 0.297408 0.226546 0.24425 0.2502 0.274851 0.259541 0.277773 0.297408 0.32626 0.24425 0.259497 0.274851 0.297382 0.277773 0.290387 0.32626 0.347591 0.259497 0.269934 0.297382 0.313623 0.290387 0.294848 0.347591 0.355588 0.269934 0.273616 0.313623 0.319582 0.294848 0.290054 0.355588 0.347484 0.273616 0.269708 0.319582 0.313526 0.290054 0.275904 0.347484 0.32581 0.269708 0.258291 0.313526 0.297188 0.174068 0.192138 0.181702 0.202568 0.169191 0.185623 0.176196 0.194998 0.192138 0.213518 0.202568 0.228042 0.185623 0.20467 0.194998 0.217393 0.213518 0.238483 0.228042 0.259288 0.20467 0.226331 0.217393 0.243934 0.238483 0.266919 0.259288 0.297382 0.226331 0.2502 0.243934 0.274773 0.266919 0.297408 0.297382 0.342168 0.2502 0.274851 0.274773 0.308783 0.297408 0.32626 0.342168 0.38939 0.274851 0.297382 0.308783 0.342171 0.32626 0.347591 0.38939 0.427846 0.297382 0.313623 0.342171 0.367882 0.347591 0.355588 0.427846 0.443049 0.313623 0.319582 0.367882 0.3779 0.355588 0.347484 0.443049 0.42873 0.319582 0.313526 0.3779 0.368266 0.347484 0.32581 0.42873 0.390701 0.313526 0.297188 0.368266 0.3428 0.181702 0.202568 0.187733 0.211051 0.176196 0.194998 0.181702 0.202559 0.202568 0.228042 0.211051 0.240331 0.194998 0.217393 0.202559 0.228009 0.228042 0.259288 0.240331 0.27777 0.217393 0.243934 0.228009 0.259227 0.259288 0.297382 0.27777 0.326377 0.243934 0.274773 0.259227 0.297308 0.297382 0.342168 0.326377 0.389423 0.274773 0.308783 0.297308 0.342106 0.342168 0.38939 0.389423 0.465724 0.308783 0.342171 0.342106 0.389364 0.38939 0.427846 0.465724 0.538458 0.342171 0.367882 0.389364 0.427872 0.427846 0.443049 0.538458 0.571973 0.367882 0.3779 0.427872 0.443122 0.443049 0.42873 0.571973 0.54058 0.3779 0.368266 0.443122 0.428808 0.42873 0.390701 0.54058 0.469944 0.368266 0.3428 0.428808 0.390744 0.187733 0.211051 0.191616 0.216644 0.181702 0.202559 0.185236 0.207508 0.211051 0.240331 0.216644 0.248666 0.202559 0.228009 0.207508 0.235124 0.240331 0.27777 0.248666 0.290779 0.228009 0.259227 0.235124 0.2698 0.27777 0.326377 0.290779 0.347882 0.259227 0.297308 0.2698 0.313571 0.326377 0.389423 0.347882 0.427659 0.297308 0.342106 0.313571 0.36767 0.389423 0.465724 0.427659 0.537553 0.342106 0.389364 0.36767 0.427629 0.465724 0.538458 0.537553 0.654667 0.389364 0.427872 0.427629 0.477552 0.538458 0.571973 0.654667 0.70578 0.427872 0.443122 0.477552 0.497961 0.571973 0.54058 0.70578 0.658447 0.443122 0.428808 0.497961 0.478886 0.54058 0.469944 0.658447 0.545123 0.428808 0.390744 0.478886 0.428977 0.191616 0.216644 0.192958 0.218603 0.185236 0.207508 0.186456 0.209234 0.216644 0.248666 0.218603 0.251633 0.207508 0.235124 0.209234 0.237636 0.248666 0.290779 0.251633 0.295466 0.235124 0.2698 0.237636 0.273603 0.290779 0.347882 0.295466 0.356005 0.2698 0.313571 0.273603 0.319527 0.347882 0.427659 0.356005 0.442375 0.313571 0.36767 0.319527 0.377485 0.427659 0.537553 0.442375 0.569919 0.36767 0.427629 0.377485 0.442439 0.537553 0.654667 0.569919 0.704914 0.427629 0.477552 0.442439 0.497293 0.654667 0.70578 0.704914 0.757279 0.477552 0.497961 0.497293 0.520564 0.70578 0.658447 0.757279 0.708158 0.497961 0.478886 0.520564 0.49895 0.658447 0.545123 0.708158 0.579828 0.478886 0.428977 0.49895 0.443304 0.192958 0.218603 0.191616 0.216644 0.186456 0.209234 0.185236 0.207508 0.218603 0.251633 0.216644 0.248666 0.209234 0.237636 0.207508 0.235124 0.251633 0.295466 0.248666 0.290779 0.237636 0.273603 0.235124 0.2698 0.295466 0.356005 0.290779 0.347882 0.273603 0.319527 0.2698 0.313571 0.356005 0.442375 0.347882 0.427659 0.319527 0.377485 0.313571 0.367669 0.442375 0.569919 0.427659 0.537551 0.377485 0.442439 0.367669 0.427628 0.569919 0.704914 0.537551 0.654661 0.442439 0.497293 0.427628 0.477551 0.704914 0.757279 0.654661 0.705776 0.497293 0.520564 0.477551 0.497959 0.757279 0.708158 0.705776 0.658441 0.520564 0.49895 0.497959 0.478884 0.708158 0.579828 0.658441 0.545117 0.49895 0.443304 0.478884 0.428975 0.191616 0.216644 0.187733 0.211051 0.185236 0.207508 0.181702 0.202559 0.216644 0.248666 0.211051 0.240332 0.207508 0.235124 0.202559 0.228009 0.248666 0.290779 0.240332 0.27777 0.235124 0.2698 0.228009 0.259227 0.290779 0.347882 0.27777 0.326377 0.2698 0.313571 0.259227 0.297308 0.347882 0.427659 0.326377 0.389423 0.313571 0.367669 0.297308 0.342106 0.427659 0.537551 0.389423 0.465723 0.367669 0.427628 0.342106 0.389363 0.537551 0.654661 0.465723 0.538453 0.427628 0.477551 0.389363 0.42787 0.654661 0.705776 0.538453 0.571963 0.477551 0.497959 0.42787 0.44312 0.705776 0.658441 0.571963 0.540575 0.497959 0.478884 0.44312 0.428806 0.658441 0.545117 0.540575 0.469942 0.478884 0.428975 0.428806 0.390742 0.187733 0.211051 0.181703 0.202568 0.181702 0.202559 0.176196 0.194998 0.211051 0.240332 0.202568 0.228042 0.202559 0.228009 0.194998 0.217393 0.240332 0.27777 0.228042 0.259288 0.228009 0.259227 0.217393 0.243934 0.27777 0.326377 0.259288 0.297382 0.259227 0.297308 0.243934 0.274773 0.326377 0.389423 0.297382 0.342168 0.297308 0.342106 0.274773 0.308782 0.389423 0.465723 0.342168 0.389389 0.342106 0.389363 0.308782 0.34217 0.465723 0.538453 0.389389 0.427846 0.389363 0.42787 0.34217 0.367881 0.538453 0.571963 0.427846 0.443049 0.42787 0.44312 0.367881 0.377899 0.571963 0.540575 0.443049 0.42873 0.44312 0.428806 0.377899 0.368265 0.540575 0.469942 0.42873 0.3907 0.428806 0.390742 0.368265 0.342799 0.181703 0.202568 0.174068 0.192138 0.176196 0.194998 0.169191 0.185623 0.202568 0.228042 0.192138 0.213518 0.194998 0.217393 0.185623 0.20467 0.228042 0.259288 0.213518 0.238483 0.217393 0.243934 0.20467 0.226331 0.259288 0.297382 0.238483 0.266919 0.243934 0.274773 0.226331 0.2502 0.297382 0.342168 0.266919 0.297408 0.274773 0.308782 0.2502 0.274851 0.342168 0.389389 0.297408 0.32626 0.308782 0.34217 0.274851 0.297382 0.389389 0.427846 0.32626 0.347591 0.34217 0.367881 0.297382 0.313623 0.427846 0.443049 0.347591 0.355588 0.367881 0.377899 0.313623 0.319582 0.443049 0.42873 0.355588 0.347484 0.377899 0.368265 0.319582 0.313525 0.42873 0.3907 0.347484 0.32581 0.368265 0.342799 0.313525 0.297188 0.174068 0.192138 0.165172 0.180789 0.169191 0.185623 0.160996 0.175323 0.192138 0.213518 0.180789 0.198278 0.185623 0.20467 0.175323 0.191123 0.213518 0.238483 0.198278 0.217783 0.20467 0.226331 0.191123 0