<?xml version="1.0" ?> 
<!-- 
# vtk DataFile Version 3.0
#This file was generated by the deal.II library on 16:46:58 at 2019/11/27
-->
<VTKFile type="UnstructuredGrid" version="0.1" byte_order="LittleEndian">
<UnstructuredGrid>
<Piece NumberOfPoints="28160" NumberOfCells="3520" >
  <Points>
    <DataArray type="Float32" NumberOfComponents="3" format="ascii">
-50 -50 0
-40 -50 0
-50 -40 0
-40 -40 0
-50 -50 10
-40 -50 10
-50 -40 10
-40 -40 10
-40 -50 0
-30 -50 0
-40 -40 0
-30 -40 0
-40 -50 10
-30 -50 10
-40 -40 10
-30 -40 10
-30 -50 0
-20 -50 0
-30 -40 0
-20 -40 0
-30 -50 10
-20 -50 10
-30 -40 10
-20 -40 10
-20 -50 0
-10 -50 0
-20 -40 0
-10 -40 0
-20 -50 10
-10 -50 10
-20 -40 10
-10 -40 10
-10 -50 0
0 -50 0
-10 -40 0
0 -40 0
-10 -50 10
0 -50 10
-10 -40 10
0 -40 10
0 -50 0
10 -50 0
0 -40 0
10 -40 0
0 -50 10
10 -50 10
0 -40 10
10 -40 10
10 -50 0
20 -50 0
10 -40 0
20 -40 0
10 -50 10
20 -50 10
10 -40 10
20 -40 10
20 -50 0
30 -50 0
20 -40 0
30 -40 0
20 -50 10
30 -50 10
20 -40 10
30 -40 10
30 -50 0
40 -50 0
30 -40 0
40 -40 0
30 -50 10
40 -50 10
30 -40 10
40 -40 10
40 -50 0
50 -50 0
40 -40 0
50 -40 0
40 -50 10
50 -50 10
40 -40 10
50 -40 10
-50 -40 0
-40 -40 0
-50 -30 0
-40 -30 0
-50 -40 10
-40 -40 10
-50 -30 10
-40 -30 10
-40 -40 0
-30 -40 0
-40 -30 0
-30 -30 0
-40 -40 10
-30 -40 10
-40 -30 10
-30 -30 10
-30 -40 0
-20 -40 0
-30 -30 0
-20 -30 0
-30 -40 10
-20 -40 10
-30 -30 10
-20 -30 10
-20 -40 0
-10 -40 0
-20 -30 0
-10 -30 0
-20 -40 10
-10 -40 10
-20 -30 10
-10 -30 10
-10 -40 0
0 -40 0
-10 -30 0
0 -30 0
-10 -40 10
0 -40 10
-10 -30 10
0 -30 10
0 -40 0
10 -40 0
0 -30 0
10 -30 0
0 -40 10
10 -40 10
0 -30 10
10 -30 10
10 -40 0
20 -40 0
10 -30 0
20 -30 0
10 -40 10
20 -40 10
10 -30 10
20 -30 10
20 -40 0
30 -40 0
20 -30 0
30 -30 0
20 -40 10
30 -40 10
20 -30 10
30 -30 10
30 -40 0
40 -40 0
30 -30 0
40 -30 0
30 -40 10
40 -40 10
30 -30 10
40 -30 10
40 -40 0
50 -40 0
40 -30 0
50 -30 0
40 -40 10
50 -40 10
40 -30 10
50 -30 10
-50 -30 0
-40 -30 0
-50 -20 0
-40 -20 0
-50 -30 10
-40 -30 10
-50 -20 10
-40 -20 10
-10 -30 0
0 -30 0
-10 -20 0
0 -20 0
-10 -30 10
0 -30 10
-10 -20 10
0 -20 10
0 -30 0
10 -30 0
0 -20 0
10 -20 0
0 -30 10
10 -30 10
0 -20 10
10 -20 10
10 -30 0
20 -30 0
10 -20 0
20 -20 0
10 -30 10
20 -30 10
10 -20 10
20 -20 10
20 -30 0
30 -30 0
20 -20 0
30 -20 0
20 -30 10
30 -30 10
20 -20 10
30 -20 10
30 -30 0
40 -30 0
30 -20 0
40 -20 0
30 -30 10
40 -30 10
30 -20 10
40 -20 10
40 -30 0
50 -30 0
40 -20 0
50 -20 0
40 -30 10
50 -30 10
40 -20 10
50 -20 10
-10 -20 0
0 -20 0
-10 -10 0
0 -10 0
-10 -20 10
0 -20 10
-10 -10 10
0 -10 10
0 -20 0
10 -20 0
0 -10 0
10 -10 0
0 -20 10
10 -20 10
0 -10 10
10 -10 10
10 -20 0
20 -20 0
10 -10 0
20 -10 0
10 -20 10
20 -20 10
10 -10 10
20 -10 10
20 -20 0
30 -20 0
20 -10 0
30 -10 0
20 -20 10
30 -20 10
20 -10 10
30 -10 10
30 -20 0
40 -20 0
30 -10 0
40 -10 0
30 -20 10
40 -20 10
30 -10 10
40 -10 10
40 -20 0
50 -20 0
40 -10 0
50 -10 0
40 -20 10
50 -20 10
40 -10 10
50 -10 10
10 -10 0
20 -10 0
10 0 0
20 0 0
10 -10 10
20 -10 10
10 0 10
20 0 10
20 -10 0
30 -10 0
20 0 0
30 0 0
20 -10 10
30 -10 10
20 0 10
30 0 10
30 -10 0
40 -10 0
30 0 0
40 0 0
30 -10 10
40 -10 10
30 0 10
40 0 10
40 -10 0
50 -10 0
40 0 0
50 0 0
40 -10 10
50 -10 10
40 0 10
50 0 10
10 0 0
20 0 0
10 10 0
20 10 0
10 0 10
20 0 10
10 10 10
20 10 10
20 0 0
30 0 0
20 10 0
30 10 0
20 0 10
30 0 10
20 10 10
30 10 10
30 0 0
40 0 0
30 10 0
40 10 0
30 0 10
40 0 10
30 10 10
40 10 10
40 0 0
50 0 0
40 10 0
50 10 0
40 0 10
50 0 10
40 10 10
50 10 10
-10 10 0
0 10 0
-10 20 0
0 20 0
-10 10 10
0 10 10
-10 20 10
0 20 10
0 10 0
10 10 0
0 20 0
10 20 0
0 10 10
10 10 10
0 20 10
10 20 10
10 10 0
20 10 0
10 20 0
20 20 0
10 10 10
20 10 10
10 20 10
20 20 10
20 10 0
30 10 0
20 20 0
30 20 0
20 10 10
30 10 10
20 20 10
30 20 10
30 10 0
40 10 0
30 20 0
40 20 0
30 10 10
40 10 10
30 20 10
40 20 10
40 10 0
50 10 0
40 20 0
50 20 0
40 10 10
50 10 10
40 20 10
50 20 10
-10 20 0
0 20 0
-10 30 0
0 30 0
-10 20 10
0 20 10
-10 30 10
0 30 10
0 20 0
10 20 0
0 30 0
10 30 0
0 20 10
10 20 10
0 30 10
10 30 10
10 20 0
20 20 0
10 30 0
20 30 0
10 20 10
20 20 10
10 30 10
20 30 10
20 20 0
30 20 0
20 30 0
30 30 0
20 20 10
30 20 10
20 30 10
30 30 10
30 20 0
40 20 0
30 30 0
40 30 0
30 20 10
40 20 10
30 30 10
40 30 10
40 20 0
50 20 0
40 30 0
50 30 0
40 20 10
50 20 10
40 30 10
50 30 10
-50 30 0
-40 30 0
-50 40 0
-40 40 0
-50 30 10
-40 30 10
-50 40 10
-40 40 10
-40 30 0
-30 30 0
-40 40 0
-30 40 0
-40 30 10
-30 30 10
-40 40 10
-30 40 10
-30 30 0
-20 30 0
-30 40 0
-20 40 0
-30 30 10
-20 30 10
-30 40 10
-20 40 10
-20 30 0
-10 30 0
-20 40 0
-10 40 0
-20 30 10
-10 30 10
-20 40 10
-10 40 10
-10 30 0
0 30 0
-10 40 0
0 40 0
-10 30 10
0 30 10
-10 40 10
0 40 10
0 30 0
10 30 0
0 40 0
10 40 0
0 30 10
10 30 10
0 40 10
10 40 10
10 30 0
20 30 0
10 40 0
20 40 0
10 30 10
20 30 10
10 40 10
20 40 10
20 30 0
30 30 0
20 40 0
30 40 0
20 30 10
30 30 10
20 40 10
30 40 10
30 30 0
40 30 0
30 40 0
40 40 0
30 30 10
40 30 10
30 40 10
40 40 10
40 30 0
50 30 0
40 40 0
50 40 0
40 30 10
50 30 10
40 40 10
50 40 10
-50 40 0
-40 40 0
-50 50 0
-40 50 0
-50 40 10
-40 40 10
-50 50 10
-40 50 10
-40 40 0
-30 40 0
-40 50 0
-30 50 0
-40 40 10
-30 40 10
-40 50 10
-30 50 10
-30 40 0
-20 40 0
-30 50 0
-20 50 0
-30 40 10
-20 40 10
-30 50 10
-20 50 10
-20 40 0
-10 40 0
-20 50 0
-10 50 0
-20 40 10
-10 40 10
-20 50 10
-10 50 10
-10 40 0
0 40 0
-10 50 0
0 50 0
-10 40 10
0 40 10
-10 50 10
0 50 10
0 40 0
10 40 0
0 50 0
10 50 0
0 40 10
10 40 10
0 50 10
10 50 10
10 40 0
20 40 0
10 50 0
20 50 0
10 40 10
20 40 10
10 50 10
20 50 10
20 40 0
30 40 0
20 50 0
30 50 0
20 40 10
30 40 10
20 50 10
30 50 10
30 40 0
40 40 0
30 50 0
40 50 0
30 40 10
40 40 10
30 50 10
40 50 10
40 40 0
50 40 0
40 50 0
50 50 0
40 40 10
50 40 10
40 50 10
50 50 10
-50 -50 10
-40 -50 10
-50 -40 10
-40 -40 10
-50 -50 20
-40 -50 20
-50 -40 20
-40 -40 20
-40 -50 10
-30 -50 10
-40 -40 10
-30 -40 10
-40 -50 20
-30 -50 20
-40 -40 20
-30 -40 20
-30 -50 10
-20 -50 10
-30 -40 10
-20 -40 10
-30 -50 20
-20 -50 20
-30 -40 20
-20 -40 20
-20 -50 10
-10 -50 10
-20 -40 10
-10 -40 10
-20 -50 20
-10 -50 20
-20 -40 20
-10 -40 20
-10 -50 10
0 -50 10
-10 -40 10
0 -40 10
-10 -50 20
0 -50 20
-10 -40 20
0 -40 20
0 -50 10
10 -50 10
0 -40 10
10 -40 10
0 -50 20
10 -50 20
0 -40 20
10 -40 20
10 -50 10
20 -50 10
10 -40 10
20 -40 10
10 -50 20
20 -50 20
10 -40 20
20 -40 20
20 -50 10
30 -50 10
20 -40 10
30 -40 10
20 -50 20
30 -50 20
20 -40 20
30 -40 20
30 -50 10
40 -50 10
30 -40 10
40 -40 10
30 -50 20
40 -50 20
30 -40 20
40 -40 20
40 -50 10
50 -50 10
40 -40 10
50 -40 10
40 -50 20
50 -50 20
40 -40 20
50 -40 20
-50 -40 10
-40 -40 10
-50 -30 10
-40 -30 10
-50 -40 20
-40 -40 20
-50 -30 20
-40 -30 20
-40 -40 10
-30 -40 10
-40 -30 10
-30 -30 10
-40 -40 20
-30 -40 20
-40 -30 20
-30 -30 20
-30 -40 10
-20 -40 10
-30 -30 10
-20 -30 10
-30 -40 20
-20 -40 20
-30 -30 20
-20 -30 20
-20 -40 10
-10 -40 10
-20 -30 10
-10 -30 10
-20 -40 20
-10 -40 20
-20 -30 20
-10 -30 20
-10 -40 10
0 -40 10
-10 -30 10
0 -30 10
-10 -40 20
0 -40 20
-10 -30 20
0 -30 20
0 -40 10
10 -40 10
0 -30 10
10 -30 10
0 -40 20
10 -40 20
0 -30 20
10 -30 20
10 -40 10
20 -40 10
10 -30 10
20 -30 10
10 -40 20
20 -40 20
10 -30 20
20 -30 20
20 -40 10
30 -40 10
20 -30 10
30 -30 10
20 -40 20
30 -40 20
20 -30 20
30 -30 20
30 -40 10
40 -40 10
30 -30 10
40 -30 10
30 -40 20
40 -40 20
30 -30 20
40 -30 20
40 -40 10
50 -40 10
40 -30 10
50 -30 10
40 -40 20
50 -40 20
40 -30 20
50 -30 20
-10 -30 10
0 -30 10
-10 -20 10
0 -20 10
-10 -30 20
0 -30 20
-10 -20 20
0 -20 20
0 -30 10
10 -30 10
0 -20 10
10 -20 10
0 -30 20
10 -30 20
0 -20 20
10 -20 20
10 -30 10
20 -30 10
10 -20 10
20 -20 10
10 -30 20
20 -30 20
10 -20 20
20 -20 20
20 -30 10
30 -30 10
20 -20 10
30 -20 10
20 -30 20
30 -30 20
20 -20 20
30 -20 20
30 -30 10
40 -30 10
30 -20 10
40 -20 10
30 -30 20
40 -30 20
30 -20 20
40 -20 20
40 -30 10
50 -30 10
40 -20 10
50 -20 10
40 -30 20
50 -30 20
40 -20 20
50 -20 20
-10 -20 10
0 -20 10
-10 -10 10
0 -10 10
-10 -20 20
0 -20 20
-10 -10 20
0 -10 20
0 -20 10
10 -20 10
0 -10 10
10 -10 10
0 -20 20
10 -20 20
0 -10 20
10 -10 20
10 -20 10
20 -20 10
10 -10 10
20 -10 10
10 -20 20
20 -20 20
10 -10 20
20 -10 20
20 -20 10
30 -20 10
20 -10 10
30 -10 10
20 -20 20
30 -20 20
20 -10 20
30 -10 20
30 -20 10
40 -20 10
30 -10 10
40 -10 10
30 -20 20
40 -20 20
30 -10 20
40 -10 20
40 -20 10
50 -20 10
40 -10 10
50 -10 10
40 -20 20
50 -20 20
40 -10 20
50 -10 20
-10 -10 10
0 -10 10
-10 0 10
0 0 10
-10 -10 20
0 -10 20
-10 0 20
0 0 20
0 -10 10
10 -10 10
0 0 10
10 0 10
0 -10 20
10 -10 20
0 0 20
10 0 20
10 -10 10
20 -10 10
10 0 10
20 0 10
10 -10 20
20 -10 20
10 0 20
20 0 20
20 -10 10
30 -10 10
20 0 10
30 0 10
20 -10 20
30 -10 20
20 0 20
30 0 20
30 -10 10
40 -10 10
30 0 10
40 0 10
30 -10 20
40 -10 20
30 0 20
40 0 20
40 -10 10
50 -10 10
40 0 10
50 0 10
40 -10 20
50 -10 20
40 0 20
50 0 20
-10 0 10
0 0 10
-10 10 10
0 10 10
-10 0 20
0 0 20
-10 10 20
0 10 20
0 0 10
10 0 10
0 10 10
10 10 10
0 0 20
10 0 20
0 10 20
10 10 20
10 0 10
20 0 10
10 10 10
20 10 10
10 0 20
20 0 20
10 10 20
20 10 20
20 0 10
30 0 10
20 10 10
30 10 10
20 0 20
30 0 20
20 10 20
30 10 20
30 0 10
40 0 10
30 10 10
40 10 10
30 0 20
40 0 20
30 10 20
40 10 20
40 0 10
50 0 10
40 10 10
50 10 10
40 0 20
50 0 20
40 10 20
50 10 20
-10 10 10
0 10 10
-10 20 10
0 20 10
-10 10 20
0 10 20
-10 20 20
0 20 20
0 10 10
10 10 10
0 20 10
10 20 10
0 10 20
10 10 20
0 20 20
10 20 20
10 10 10
20 10 10
10 20 10
20 20 10
10 10 20
20 10 20
10 20 20
20 20 20
20 10 10
30 10 10
20 20 10
30 20 10
20 10 20
30 10 20
20 20 20
30 20 20
30 10 10
40 10 10
30 20 10
40 20 10
30 10 20
40 10 20
30 20 20
40 20 20
40 10 10
50 10 10
40 20 10
50 20 10
40 10 20
50 10 20
40 20 20
50 20 20
-10 20 10
0 20 10
-10 30 10
0 30 10
-10 20 20
0 20 20
-10 30 20
0 30 20
0 20 10
10 20 10
0 30 10
10 30 10
0 20 20
10 20 20
0 30 20
10 30 20
10 20 10
20 20 10
10 30 10
20 30 10
10 20 20
20 20 20
10 30 20
20 30 20
20 20 10
30 20 10
20 30 10
30 30 10
20 20 20
30 20 20
20 30 20
30 30 20
30 20 10
40 20 10
30 30 10
40 30 10
30 20 20
40 20 20
30 30 20
40 30 20
40 20 10
50 20 10
40 30 10
50 30 10
40 20 20
50 20 20
40 30 20
50 30 20
-50 30 10
-40 30 10
[...]
  <PointData Scalars="scalars">
    <DataArray type="Float32" Name="u" format="ascii">
0.310446 0.318188 0.385009 0.397357 0.304642 0.311885 0.374038 0.385111 0.318188 0.312207 0.397357 0.385428 0.311885 0.306294 0.385111 0.374516 0.312207 0.295685 0.385428 0.355918 0.306294 0.290634 0.374516 0.347237 0.295685 0.272763 0.355918 0.319032 0.290634 0.269058 0.347237 0.312031 0.272763 0.248895 0.319032 0.28163 0.269058 0.245894 0.312031 0.277374 0.248895 0.225382 0.28163 0.248796 0.245894 0.223191 0.277374 0.245824 0.225382 0.203997 0.248796 0.220831 0.223191 0.202359 0.245824 0.218767 0.203997 0.185127 0.220831 0.197479 0.202359 0.183902 0.218767 0.195988 0.185127 0.168712 0.197479 0.177915 0.183902 0.167782 0.195988 0.176826 0.168712 0.154296 0.177915 0.161541 0.167782 0.153586 0.176826 0.160725 0.385009 0.397357 0.50368 0.530525 0.374038 0.385111 0.479903 0.499855 0.397357 0.385428 0.530525 0.501223 0.385111 0.374516 0.499855 0.479298 0.385428 0.355918 0.501223 0.445328 0.374516 0.347237 0.479298 0.428708 0.355918 0.319032 0.445328 0.376772 0.347237 0.312031 0.428708 0.36541 0.319032 0.28163 0.376772 0.319002 0.312031 0.277374 0.36541 0.312025 0.28163 0.248796 0.319002 0.272711 0.277374 0.245824 0.312025 0.268915 0.248796 0.220831 0.272711 0.23734 0.245824 0.218767 0.268915 0.234732 0.220831 0.197479 0.23734 0.209011 0.218767 0.195988 0.234732 0.207255 0.197479 0.177915 0.209011 0.186245 0.195988 0.176826 0.207255 0.184992 0.177915 0.161541 0.186245 0.167705 0.176826 0.160725 0.184992 0.166789 0.50368 0.530525 0.715079 0.795497 0.479903 0.499855 0.653924 0.708522 0.376772 0.319002 0.443339 0.356036 0.36541 0.312025 0.427964 0.347316 0.319002 0.272711 0.356036 0.295468 0.312025 0.268915 0.347316 0.290471 0.272711 0.23734 0.295468 0.251745 0.268915 0.234732 0.290471 0.249016 0.23734 0.209011 0.251745 0.218654 0.234732 0.207255 0.249016 0.216556 0.209011 0.186245 0.218654 0.192979 0.207255 0.184992 0.216556 0.191568 0.186245 0.167705 0.192979 0.172546 0.184992 0.166789 0.191568 0.171551 0.443339 0.356036 0.503118 0.383927 0.427964 0.347316 0.481046 0.373154 0.356036 0.295468 0.383927 0.312087 0.347316 0.290471 0.373154 0.30609 0.295468 0.251745 0.312087 0.261413 0.290471 0.249016 0.30609 0.2578 0.251745 0.218654 0.261413 0.225702 0.249016 0.216556 0.2578 0.222894 0.218654 0.192979 0.225702 0.197371 0.216556 0.191568 0.222894 0.195914 0.192979 0.172546 0.197371 0.175677 0.191568 0.171551 0.195914 0.174603 0.312087 0.261413 0.32062 0.264997 0.30609 0.2578 0.311753 0.261389 0.261413 0.225702 0.264997 0.227645 0.2578 0.222894 0.261389 0.225699 0.225702 0.197371 0.227645 0.199008 0.222894 0.195914 0.225699 0.19737 0.197371 0.175677 0.199008 0.176732 0.195914 0.174603 0.19737 0.175675 0.32062 0.264997 0.312257 0.261414 0.311753 0.261389 0.305853 0.257783 0.264997 0.227645 0.261414 0.225696 0.261389 0.225699 0.257783 0.222888 0.227645 0.199008 0.225696 0.197367 0.225699 0.19737 0.222888 0.19591 0.199008 0.176732 0.197367 0.175673 0.19737 0.175675 0.19591 0.174599 0.503235 0.382983 0.445106 0.356001 0.482493 0.374444 0.428163 0.347423 0.382983 0.312257 0.356001 0.295462 0.374444 0.305853 0.347423 0.290438 0.312257 0.261414 0.295462 0.251732 0.305853 0.257783 0.290438 0.249 0.261414 0.225696 0.251732 0.218644 0.257783 0.222888 0.249 0.216547 0.225696 0.197367 0.218644 0.192972 0.222888 0.19591 0.216547 0.191562 0.197367 0.175673 0.192972 0.172541 0.19591 0.174599 0.191562 0.171545 0.445106 0.356001 0.376102 0.318665 0.428163 0.347423 0.366333 0.312557 0.356001 0.295462 0.318665 0.272748 0.347423 0.290438 0.312557 0.268835 0.295462 0.251732 0.272748 0.237319 0.290438 0.249 0.268835 0.234725 0.251732 0.218644 0.237319 0.209002 0.249 0.216547 0.234725 0.207243 0.218644 0.192972 0.209002 0.186236 0.216547 0.191562 0.207243 0.184984 0.192972 0.172541 0.186236 0.167697 0.191562 0.171545 0.184984 0.166782 0.503668 0.529749 0.385335 0.397546 0.478484 0.500928 0.37405 0.385261 0.529749 0.500876 0.397546 0.385391 0.500928 0.478974 0.385261 0.374501 0.500876 0.445387 0.385391 0.355856 0.478974 0.428509 0.374501 0.347234 0.445387 0.376102 0.355856 0.318673 0.428509 0.366333 0.347234 0.312564 0.376102 0.318665 0.318673 0.281557 0.366333 0.312557 0.312564 0.277305 0.318665 0.272748 0.281557 0.248782 0.312557 0.268835 0.277305 0.245831 0.272748 0.237319 0.248782 0.220821 0.268835 0.234725 0.245831 0.21875 0.237319 0.209002 0.220821 0.197467 0.234725 0.207243 0.21875 0.195978 0.209002 0.186236 0.197467 0.177906 0.207243 0.184984 0.195978 0.176817 0.186236 0.167697 0.177906 0.161533 0.184984 0.166782 0.176817 0.160717 0.385335 0.397546 0.310645 0.318333 0.37405 0.385261 0.304757 0.311991 0.397546 0.385391 0.318333 0.312233 0.385261 0.374501 0.311991 0.306316 0.385391 0.355856 0.312233 0.29568 0.374501 0.347234 0.306316 0.290621 0.355856 0.318673 0.29568 0.272863 0.347234 0.312564 0.290621 0.268927 0.318673 0.281557 0.272863 0.248879 0.312564 0.277305 0.268927 0.24592 0.281557 0.248782 0.248879 0.225366 0.277305 0.245831 0.24592 0.223165 0.248782 0.220821 0.225366 0.203985 0.245831 0.21875 0.223165 0.202349 0.220821 0.197467 0.203985 0.185117 0.21875 0.195978 0.202349 0.183891 0.197467 0.177906 0.185117 0.168703 0.195978 0.176817 0.183891 0.167773 0.177906 0.161533 0.168703 0.154288 0.176817 0.160717 0.167773 0.153578 0.304642 0.311885 0.374038 0.385111 0.289236 0.295308 0.346733 0.355639 0.311885 0.306294 0.385111 0.374516 0.295308 0.290512 0.355639 0.34718 0.306294 0.290634 0.374516 0.347237 0.290512 0.276458 0.34718 0.323802 0.290634 0.269058 0.347237 0.312031 0.276458 0.258281 0.323802 0.295808 0.269058 0.245894 0.312031 0.277374 0.258281 0.237637 0.295808 0.265642 0.245894 0.223191 0.277374 0.245824 0.237637 0.216954 0.265642 0.237563 0.223191 0.202359 0.245824 0.218767 0.216954 0.197674 0.237563 0.212886 0.202359 0.183902 0.218767 0.195988 0.197674 0.180362 0.212886 0.191717 0.183902 0.167782 0.195988 0.176826 0.180362 0.16508 0.191717 0.17367 0.167782 0.153586 0.176826 0.160725 0.16508 0.151514 0.17367 0.158348 0.374038 0.385111 0.479903 0.499855 0.346733 0.355639 0.429208 0.445694 0.385111 0.374516 0.499855 0.479298 0.355639 0.34718 0.445694 0.428648 0.374516 0.347237 0.479298 0.428708 0.34718 0.323802 0.428648 0.386476 0.347237 0.312031 0.428708 0.36541 0.323802 0.295808 0.386476 0.339882 0.312031 0.277374 0.36541 0.312025 0.295808 0.265642 0.339882 0.295804 0.277374 0.245824 0.312025 0.268915 0.265642 0.237563 0.295804 0.258236 0.245824 0.218767 0.268915 0.234732 0.237563 0.212886 0.258236 0.227447 0.218767 0.195988 0.234732 0.207255 0.212886 0.191717 0.227447 0.202199 0.195988 0.176826 0.207255 0.184992 0.191717 0.17367 0.202199 0.181386 0.176826 0.160725 0.184992 0.166789 0.17367 0.158348 0.181386 0.164132 0.36541 0.312025 0.427964 0.347316 0.339882 0.295804 0.386621 0.323864 0.312025 0.268915 0.347316 0.290471 0.295804 0.258236 0.323864 0.276323 0.268915 0.234732 0.290471 0.249016 0.258236 0.227447 0.276323 0.23999 0.234732 0.207255 0.249016 0.216556 0.227447 0.202199 0.23999 0.210853 0.207255 0.184992 0.216556 0.191568 0.202199 0.181386 0.210853 0.187543 0.184992 0.166789 0.191568 0.171551 0.181386 0.164132 0.187543 0.168658 0.427964 0.347316 0.481046 0.373154 0.386621 0.323864 0.42848 0.347161 0.347316 0.290471 0.373154 0.30609 0.323864 0.276323 0.347161 0.290451 0.290471 0.249016 0.30609 0.2578 0.276323 0.23999 0.290451 0.24901 0.249016 0.216556 0.2578 0.222894 0.23999 0.210853 0.24901 0.216557 0.216556 0.191568 0.222894 0.195914 0.210853 0.187543 0.216557 0.191572 0.191568 0.171551 0.195914 0.174603 0.187543 0.168658 0.191572 0.171554 0.481046 0.373154 0.506869 0.386722 0.42848 0.347161 0.444066 0.356016 0.373154 0.30609 0.386722 0.311753 0.347161 0.290451 0.356016 0.295504 0.30609 0.2578 0.311753 0.261389 0.290451 0.24901 0.295504 0.251756 0.2578 0.222894 0.261389 0.225699 0.24901 0.216557 0.251756 0.21865 0.222894 0.195914 0.225699 0.19737 0.216557 0.191572 0.21865 0.192983 0.195914 0.174603 0.19737 0.175675 0.191572 0.171554 0.192983 0.172548 0.506869 0.386722 0.482493 0.374444 0.444066 0.356016 0.428101 0.34724 0.386722 0.311753 0.374444 0.305853 0.356016 0.295504 0.34724 0.290433 0.311753 0.261389 0.305853 0.257783 0.295504 0.251756 0.290433 0.248999 0.261389 0.225699 0.257783 0.222888 0.251756 0.21865 0.248999 0.216551 0.225699 0.19737 0.222888 0.19591 0.21865 0.192983 0.216551 0.191568 0.19737 0.175675 0.19591 0.174599 0.192983 0.172548 0.191568 0.171551 0.482493 0.374444 0.428163 0.347423 0.428101 0.34724 0.38662 0.323812 0.374444 0.305853 0.347423 0.290438 0.34724 0.290433 0.323812 0.276293 0.305853 0.257783 0.290438 0.249 0.290433 0.248999 0.276293 0.239976 0.257783 0.222888 0.249 0.216547 0.248999 0.216551 0.239976 0.210844 0.222888 0.19591 0.216547 0.191562 0.216551 0.191568 0.210844 0.187537 0.19591 0.174599 0.191562 0.171545 0.191568 0.171551 0.187537 0.168652 0.428163 0.347423 0.366333 0.312557 0.38662 0.323812 0.339639 0.295648 0.347423 0.290438 0.312557 0.268835 0.323812 0.276293 0.295648 0.258239 0.290438 0.249 0.268835 0.234725 0.276293 0.239976 0.258239 0.227429 0.249 0.216547 0.234725 0.207243 0.239976 0.210844 0.227429 0.202189 0.216547 0.191562 0.207243 0.184984 0.210844 0.187537 0.202189 0.181377 0.191562 0.171545 0.184984 0.166782 0.187537 0.168652 0.181377 0.164125 0.478484 0.500928 0.37405 0.385261 0.429561 0.445308 0.346812 0.355669 0.500928 0.478974 0.385261 0.374501 0.445308 0.428476 0.355669 0.347162 0.478974 0.428509 0.374501 0.347234 0.428476 0.386472 0.347162 0.323786 0.428509 0.366333 0.347234 0.312564 0.386472 0.339639 0.323786 0.295644 0.366333 0.312557 0.312564 0.277305 0.339639 0.295648 0.295644 0.265609 0.312557 0.268835 0.277305 0.245831 0.295648 0.258239 0.265609 0.237544 0.268835 0.234725 0.245831 0.21875 0.258239 0.227429 0.237544 0.212872 0.234725 0.207243 0.21875 0.195978 0.227429 0.202189 0.212872 0.191705 0.207243 0.184984 0.195978 0.176817 0.202189 0.181377 0.191705 0.173661 0.184984 0.166782 0.176817 0.160717 0.181377 0.164125 0.173661 0.15834 0.37405 0.385261 0.304757 0.311991 0.346812 0.355669 0.289327 0.29537 0.385261 0.374501 0.311991 0.306316 0.355669 0.347162 0.29537 0.29052 0.374501 0.347234 0.306316 0.290621 0.347162 0.323786 0.29052 0.276431 0.347234 0.312564 0.290621 0.268927 0.323786 0.295644 0.276431 0.258311 0.312564 0.277305 0.268927 0.24592 0.295644 0.265609 0.258311 0.237616 0.277305 0.245831 0.24592 0.223165 0.265609 0.237544 0.237616 0.216936 0.245831 0.21875 0.223165 0.202349 0.237544 0.212872 0.216936 0.197661 0.21875 0.195978 0.202349 0.183891 0.212872 0.191705 0.197661 0.180352 0.195978 0.176817 0.183891 0.167773 0.191705 0.173661 0.180352 0.165071 0.176817 0.160717 0.167773 0.153578 0.173661 0.15834 0.165071 0.151506 0.289236 0.295308 0.346733 0.355639 0.26819 0.272552 0.312232 0.318443 0.295308 0.290512 0.355639 0.34718 0.272552 0.268772 0.318443 0.312465 0.290512 0.276458 0.34718 0.323802 0.268772 0.258267 0.312465 0.295618 0.276458 0.258281 0.323802 0.295808 0.258267 0.242995 0.295618 0.273352 0.258281 0.237637 0.295808 0.265642 0.242995 0.225527 0.273352 0.249028 0.237637 0.216954 0.265642 0.237563 0.225527 0.207608 0.249028 0.225452 0.216954 0.197674 0.237563 0.212886 0.207608 0.190527 0.225452 0.204036 0.197674 0.180362 0.212886 0.191717 0.190527 0.174882 0.204036 0.185172 0.180362 0.16508 0.191717 0.17367 0.174882 0.160848 0.185172 0.168761 0.16508 0.151514 0.17367 0.158348 0.160848 0.148235 0.168761 0.154605 0.346733 0.355639 0.429208 0.445694 0.312232 0.318443 0.36658 0.376 0.355639 0.34718 0.445694 0.428648 0.318443 0.312465 0.376 0.366229 0.34718 0.323802 0.428648 0.386476 0.312465 0.295618 0.366229 0.339622 0.323802 0.295808 0.386476 0.339882 0.295618 0.273352 0.339622 0.306839 0.295808 0.265642 0.339882 0.295804 0.273352 0.249028 0.306839 0.273343 0.265642 0.237563 0.295804 0.258236 0.249028 0.225452 0.273343 0.242942 0.237563 0.212886 0.258236 0.227447 0.225452 0.204036 0.242942 0.216745 0.212886 0.191717 0.227447 0.202199 0.204036 0.185172 0.216745 0.19455 0.191717 0.17367 0.202199 0.181386 0.185172 0.168761 0.19455 0.175811 0.17367 0.158348 0.181386 0.164132 0.168761 0.154605 0.175811 0.159974 0.386476 0.339882 0.459069 0.386621 0.339622 0.306839 0.386511 0.339787 0.339882 0.295804 0.386621 0.323864 0.306839 0.273343 0.339787 0.295762 0.295804 0.258236 0.323864 0.276323 0.273343 0.242942 0.295762 0.258171 0.258236 0.227447 0.276323 0.23999 0.242942 0.216745 0.258171 0.227428 0.227447 0.202199 0.23999 0.210853 0.216745 0.19455 0.227428 0.202202 0.202199 0.181386 0.210853 0.187543 0.19455 0.175811 0.202202 0.181398 0.181386 0.164132 0.187543 0.168658 0.175811 0.159974 0.181398 0.164148 0.386621 0.323864 0.42848 0.347161 0.339787 0.295762 0.365517 0.31139 0.323864 0.276323 0.347161 0.290451 0.295762 0.258171 0.31139 0.268823 0.276323 0.23999 0.290451 0.24901 0.258171 0.227428 0.268823 0.234738 0.23999 0.210853 0.24901 0.216557 0.227428 0.202202 0.234738 0.207255 0.210853 0.187543 0.216557 0.191572 0.202202 0.181398 0.207255 0.18501 0.187543 0.168658 0.191572 0.171554 0.181398 0.164148 0.18501 0.166809 0.42848 0.347161 0.444066 0.356016 0.365517 0.31139 0.376634 0.318403 0.347161 0.290451 0.356016 0.295504 0.31139 0.268823 0.318403 0.273317 0.290451 0.24901 0.295504 0.251756 0.268823 0.234738 0.273317 0.237288 0.24901 0.216557 0.251756 0.21865 0.234738 0.207255 0.237288 0.209018 0.216557 0.191572 0.21865 0.192983 0.207255 0.18501 0.209018 0.186262 0.191572 0.171554 0.192983 0.172548 0.18501 0.166809 0.186262 0.167724 0.444066 0.356016 0.428101 0.34724 0.376634 0.318403 0.365548 0.311344 0.356016 0.295504 0.34724 0.290433 0.318403 0.273317 0.311344 0.268809 0.295504 0.251756 0.290433 0.248999 0.273317 0.237288 0.268809 0.23473 0.251756 0.21865 0.248999 0.216551 0.237288 0.209018 0.23473 0.207251 0.21865 0.192983 0.216551 0.191568 0.209018 0.186262 0.207251 0.185006 0.192983 0.172548 0.191568 0.171551 0.186262 0.167724 0.185006 0.166806 0.428101 0.34724 0.38662 0.323812 0.365548 0.311344 0.339698 0.29572 0.34724 0.290433 0.323812 0.276293 0.311344 0.268809 0.29572 0.258145 0.290433 0.248999 0.276293 0.239976 0.268809 0.23473 0.258145 0.227415 0.248999 0.216551 0.239976 0.210844 0.23473 0.207251 0.227415 0.202193 0.216551 0.191568 0.210844 0.187537 0.207251 0.185006 0.202193 0.181392 0.191568 0.171551 0.187537 0.168652 0.185006 0.166806 0.181392 0.164143 0.459009 0.38662 0.386472 0.339639 0.386617 0.339698 0.339544 0.306802 0.38662 0.323812 0.339639 0.295648 0.339698 0.29572 0.306802 0.273295 0.323812 0.276293 0.295648 0.258239 0.29572 0.258145 0.273295 0.24291 0.276293 0.239976 0.258239 0.227429 0.258145 0.227415 0.24291 0.216731 0.239976 0.210844 0.227429 0.202189 0.227415 0.202193 0.216731 0.194539 0.210844 0.187537 0.202189 0.181377 0.202193 0.181392 0.194539 0.175803 0.187537 0.168652 0.181377 0.164125 0.181392 0.164143 0.175803 0.159968 0.429561 0.445308 0.346812 0.355669 0.366456 0.376013 0.312253 0.318452 0.445308 0.428476 0.355669 0.347162 0.376013 0.366254 0.318452 0.31245 0.428476 0.386472 0.347162 0.323786 0.366254 0.339544 0.31245 0.295579 0.386472 0.339639 0.323786 0.295644 0.339544 0.306802 0.295579 0.273308 0.339639 0.295648 0.295644 0.265609 0.306802 0.273295 0.273308 0.248981 0.295648 0.258239 0.265609 0.237544 0.273295 0.24291 0.248981 0.225428 0.258239 0.227429 0.237544 0.212872 0.24291 0.216731 0.225428 0.204021 0.227429 0.202189 0.212872 0.191705 0.216731 0.194539 0.204021 0.185161 0.202189 0.181377 0.191705 0.173661 0.194539 0.175803 0.185161 0.168752 0.181377 0.164125 0.173661 0.15834 0.175803 0.159968 0.168752 0.154598 0.346812 0.355669 0.289327 0.29537 0.312253 0.318452 0.268222 0.27257 0.355669 0.347162 0.29537 0.29052 0.318452 0.31245 0.27257 0.268766 0.347162 0.323786 0.29052 0.276431 0.31245 0.295579 0.268766 0.258242 0.323786 0.295644 0.276431 0.258311 0.295579 0.273308 0.258242 0.24295 0.295644 0.265609 0.258311 0.237616 0.273308 0.248981 0.24295 0.225496 0.265609 0.237544 0.237616 0.216936 0.248981 0.225428 0.225496 0.207587 0.237544 0.212872 0.216936 0.197661 0.225428 0.204021 0.207587 0.190512 0.212872 0.191705 0.197661 0.180352 0.204021 0.185161 0.190512 0.174872 0.191705 0.173661 0.180352 0.165071 0.185161 0.168752 0.174872 0.16084 0.173661 0.15834 0.165071 0.151506 0.168752 0.154598 0.16084 0.148228 0.26819 0.272552 0.312232 0.318443 0.245325 0.248597 0.276964 0.281291 0.272552 0.268772 0.318443 0.312465 0.248597 0.245743 0.281291 0.277141 0.268772 0.258267 0.312465 0.295618 0.245743 0.237527 0.277141 0.265506 0.258267 0.242995 0.295618 0.273352 0.237527 0.225471 0.265506 0.248965 0.242995 0.225527 0.273352 0.249028 0.225471 0.211246 0.248965 0.230159 0.225527 0.207608 0.249028 0.225452 0.211246 0.196304 0.230159 0.211186 0.207608 0.190527 0.225452 0.204036 0.196304 0.181681 0.211186 0.193287 0.190527 0.174882 0.204036 0.185172 0.181681 0.167969 0.193287 0.177025 0.174882 0.160848 0.185172 0.168761 0.167969 0.155424 0.177025 0.162528 0.160848 0.148235 0.168761 0.154605 0.155424 0.143972 0.162528 0.149776 0.312232 0.318443 0.36658 0.376 0.276964 0.281291 0.31238 0.317842 0.318443 0.312465 0.376 0.366229 0.281291 0.277141 0.317842 0.311805 0.312465 0.295618 0.366229 0.339622 0.277141 0.265506 0.311805 0.295591 0.295618 0.273352 0.339622 0.306839 0.265506 0.248965 0.295591 0.273272 0.273352 0.249028 0.306839 0.273343 0.248965 0.230159 0.273272 0.248963 0.249028 0.225452 0.273343 0.242942 0.230159 0.211186 0.248963 0.225398 0.225452 0.204036 0.242942 0.216745 0.211186 0.193287 0.225398 0.204006 0.204036 0.185172 0.216745 0.19455 0.193287 0.177025 0.204006 0.185167 0.185172 0.168761 0.19455 0.175811 0.177025 0.162528 0.185167 0.168796 0.168761 0.154605 0.175811 0.159974 0.162528 0.149776 0.168796 0.154643 0.36658 0.376 0.428716 0.44441 0.31238 0.317842 0.346943 0.355672 0.376 0.366229 0.44441 0.428187 0.317842 0.311805 0.355672 0.34708 0.366229 0.339622 0.428187 0.386511 0.311805 0.295591 0.34708 0.323663 0.339622 0.306839 0.386511 0.339787 0.295591 0.273272 0.323663 0.295688 0.306839 0.273343 0.339787 0.295762 0.273272 0.248963 0.295688 0.265466 0.273343 0.242942 0.295762 0.258171 0.248963 0.225398 0.265466 0.237455 0.242942 0.216745 0.258171 0.227428 0.225398 0.204006 0.237455 0.212841 0.216745 0.19455 0.227428 0.202202 0.204006 0.185167 0.212841 0.191715 0.19455 0.175811 0.202202 0.181398 0.185167 0.168796 0.191715 0.173721 0.175811 0.159974 0.181398 0.164148 0.168796 0.154643 0.173721 0.158404 0.428716 0.44441 0.482484 0.505386 0.346943 0.355672 0.374582 0.385716 0.44441 0.428187 0.505386 0.48074 0.355672 0.34708 0.385716 0.374689 0.428187 0.386511 0.48074 0.428468 0.34708 0.323663 0.374689 0.347081 0.386511 0.339787 0.428468 0.365517 0.323663 0.295688 0.347081 0.311314 0.339787 0.295762 0.365517 0.31139 0.295688 0.265466 0.311314 0.277065 0.295762 0.258171 0.31139 0.268823 0.265466 0.237455 0.277065 0.245722 0.258171 0.227428 0.268823 0.234738 0.237455 0.212841 0.245722 0.218733 0.227428 0.202202 0.234738 0.207255 0.212841 0.191715 0.218733 0.19599 0.202202 0.181398 0.207255 0.18501 0.191715 0.173721 0.19599 0.176885 0.181398 0.164148 0.18501 0.166809 0.173721 0.158404 0.176885 0.160788 0.482484 0.505386 0.50384 0.530468 0.374582 0.385716 0.38539 0.397605 0.505386 0.48074 0.530468 0.503821 0.385716 0.374689 0.397605 0.385658 0.48074 0.428468 0.503821 0.444725 0.374689 0.347081 0.385658 0.355766 0.428468 0.365517 0.444725 0.376634 0.347081 0.311314 0.355766 0.318335 0.365517 0.31139 0.376634 0.318403 0.311314 0.277065 0.318335 0.28174 0.31139 0.268823 0.318403 0.273317 0.277065 0.245722 0.28174 0.248723 0.268823 0.234738 0.273317 0.237288 0.245722 0.218733 0.248723 0.220821 0.234738 0.207255 0.237288 0.209018 0.218733 0.19599 0.220821 0.197477 0.207255 0.18501 0.209018 0.186262 0.19599 0.176885 0.197477 0.177976 0.18501 0.166809 0.186262 0.167724 0.176885 0.160788 0.177976 0.161605 0.50384 0.530468 0.478183 0.503874 0.38539 0.397605 0.374162 0.385578 0.530468 0.503821 0.503874 0.483849 0.397605 0.385658 0.385578 0.374937 0.503821 0.444725 0.483849 0.42773 0.385658 0.355766 0.374937 0.347043 0.444725 0.376634 0