<?xml version="1.0" ?> 
<!-- 
# vtk DataFile Version 3.0
#This file was generated by the deal.II library on 16:49:13 at 2019/11/27
-->
<VTKFile type="UnstructuredGrid" version="0.1" byte_order="LittleEndian">
<UnstructuredGrid>
<Piece NumberOfPoints="17800" NumberOfCells="2225" >
  <Points>
    <DataArray type="Float32" NumberOfComponents="3" format="ascii">
-50 -50 0
-40 -50 0
-50 -40 0
-40 -40 0
-50 -50 10
-40 -50 10
-50 -40 10
-40 -40 10
-40 -50 0
-30 -50 0
-40 -40 0
-30 -40 0
-40 -50 10
-30 -50 10
-40 -40 10
-30 -40 10
-30 -50 0
-20 -50 0
-30 -40 0
-20 -40 0
-30 -50 10
-20 -50 10
-30 -40 10
-20 -40 10
-20 -50 0
-10 -50 0
-20 -40 0
-10 -40 0
-20 -50 10
-10 -50 10
-20 -40 10
-10 -40 10
-10 -50 0
0 -50 0
-10 -40 0
0 -40 0
-10 -50 10
0 -50 10
-10 -40 10
0 -40 10
0 -50 0
10 -50 0
0 -40 0
10 -40 0
0 -50 10
10 -50 10
0 -40 10
10 -40 10
10 -50 0
20 -50 0
10 -40 0
20 -40 0
10 -50 10
20 -50 10
10 -40 10
20 -40 10
20 -50 0
30 -50 0
20 -40 0
30 -40 0
20 -50 10
30 -50 10
20 -40 10
30 -40 10
30 -50 0
40 -50 0
30 -40 0
40 -40 0
30 -50 10
40 -50 10
30 -40 10
40 -40 10
40 -50 0
50 -50 0
40 -40 0
50 -40 0
40 -50 10
50 -50 10
40 -40 10
50 -40 10
-50 -40 0
-40 -40 0
-50 -30 0
-40 -30 0
-50 -40 10
-40 -40 10
-50 -30 10
-40 -30 10
-40 -40 0
-30 -40 0
-40 -30 0
-30 -30 0
-40 -40 10
-30 -40 10
-40 -30 10
-30 -30 10
-30 -40 0
-20 -40 0
-30 -30 0
-20 -30 0
-30 -40 10
-20 -40 10
-30 -30 10
-20 -30 10
-20 -40 0
-10 -40 0
-20 -30 0
-10 -30 0
-20 -40 10
-10 -40 10
-20 -30 10
-10 -30 10
-10 -40 0
0 -40 0
-10 -30 0
0 -30 0
-10 -40 10
0 -40 10
-10 -30 10
0 -30 10
0 -40 0
10 -40 0
0 -30 0
10 -30 0
0 -40 10
10 -40 10
0 -30 10
10 -30 10
10 -40 0
20 -40 0
10 -30 0
20 -30 0
10 -40 10
20 -40 10
10 -30 10
20 -30 10
20 -40 0
30 -40 0
20 -30 0
30 -30 0
20 -40 10
30 -40 10
20 -30 10
30 -30 10
30 -40 0
40 -40 0
30 -30 0
40 -30 0
30 -40 10
40 -40 10
30 -30 10
40 -30 10
40 -40 0
50 -40 0
40 -30 0
50 -30 0
40 -40 10
50 -40 10
40 -30 10
50 -30 10
-50 -30 0
-40 -30 0
-50 -20 0
-40 -20 0
-50 -30 10
-40 -30 10
-50 -20 10
-40 -20 10
-40 -30 0
-30 -30 0
-40 -20 0
-30 -20 0
-40 -30 10
-30 -30 10
-40 -20 10
-30 -20 10
-30 -30 0
-20 -30 0
-30 -20 0
-20 -20 0
-30 -30 10
-20 -30 10
-30 -20 10
-20 -20 10
-20 -30 0
-10 -30 0
-20 -20 0
-10 -20 0
-20 -30 10
-10 -30 10
-20 -20 10
-10 -20 10
-10 -30 0
0 -30 0
-10 -20 0
0 -20 0
-10 -30 10
0 -30 10
-10 -20 10
0 -20 10
20 -30 0
30 -30 0
20 -20 0
30 -20 0
20 -30 10
30 -30 10
20 -20 10
30 -20 10
30 -30 0
40 -30 0
30 -20 0
40 -20 0
30 -30 10
40 -30 10
30 -20 10
40 -20 10
-50 -20 0
-40 -20 0
-50 -10 0
-40 -10 0
-50 -20 10
-40 -20 10
-50 -10 10
-40 -10 10
-40 -20 0
-30 -20 0
-40 -10 0
-30 -10 0
-40 -20 10
-30 -20 10
-40 -10 10
-30 -10 10
-30 -20 0
-20 -20 0
-30 -10 0
-20 -10 0
-30 -20 10
-20 -20 10
-30 -10 10
-20 -10 10
-20 -20 0
-10 -20 0
-20 -10 0
-10 -10 0
-20 -20 10
-10 -20 10
-20 -10 10
-10 -10 10
-10 -20 0
0 -20 0
-10 -10 0
0 -10 0
-10 -20 10
0 -20 10
-10 -10 10
0 -10 10
-50 -10 0
-40 -10 0
-50 0 0
-40 0 0
-50 -10 10
-40 -10 10
-50 0 10
-40 0 10
-40 -10 0
-30 -10 0
-40 0 0
-30 0 0
-40 -10 10
-30 -10 10
-40 0 10
-30 0 10
-30 -10 0
-20 -10 0
-30 0 0
-20 0 0
-30 -10 10
-20 -10 10
-30 0 10
-20 0 10
-50 0 0
-40 0 0
-50 10 0
-40 10 0
-50 0 10
-40 0 10
-50 10 10
-40 10 10
-40 0 0
-30 0 0
-40 10 0
-30 10 0
-40 0 10
-30 0 10
-40 10 10
-30 10 10
-30 0 0
-20 0 0
-30 10 0
-20 10 0
-30 0 10
-20 0 10
-30 10 10
-20 10 10
-50 10 0
-40 10 0
-50 20 0
-40 20 0
-50 10 10
-40 10 10
-50 20 10
-40 20 10
-40 10 0
-30 10 0
-40 20 0
-30 20 0
-40 10 10
-30 10 10
-40 20 10
-30 20 10
-30 10 0
-20 10 0
-30 20 0
-20 20 0
-30 10 10
-20 10 10
-30 20 10
-20 20 10
-20 10 0
-10 10 0
-20 20 0
-10 20 0
-20 10 10
-10 10 10
-20 20 10
-10 20 10
-10 10 0
0 10 0
-10 20 0
0 20 0
-10 10 10
0 10 10
-10 20 10
0 20 10
-50 20 0
-40 20 0
-50 30 0
-40 30 0
-50 20 10
-40 20 10
-50 30 10
-40 30 10
-40 20 0
-30 20 0
-40 30 0
-30 30 0
-40 20 10
-30 20 10
-40 30 10
-30 30 10
-30 20 0
-20 20 0
-30 30 0
-20 30 0
-30 20 10
-20 20 10
-30 30 10
-20 30 10
-20 20 0
-10 20 0
-20 30 0
-10 30 0
-20 20 10
-10 20 10
-20 30 10
-10 30 10
-10 20 0
0 20 0
-10 30 0
0 30 0
-10 20 10
0 20 10
-10 30 10
0 30 10
20 20 0
30 20 0
20 30 0
30 30 0
20 20 10
30 20 10
20 30 10
30 30 10
30 20 0
40 20 0
30 30 0
40 30 0
30 20 10
40 20 10
30 30 10
40 30 10
-50 30 0
-40 30 0
-50 40 0
-40 40 0
-50 30 10
-40 30 10
-50 40 10
-40 40 10
-40 30 0
-30 30 0
-40 40 0
-30 40 0
-40 30 10
-30 30 10
-40 40 10
-30 40 10
-30 30 0
-20 30 0
-30 40 0
-20 40 0
-30 30 10
-20 30 10
-30 40 10
-20 40 10
-20 30 0
-10 30 0
-20 40 0
-10 40 0
-20 30 10
-10 30 10
-20 40 10
-10 40 10
-10 30 0
0 30 0
-10 40 0
0 40 0
-10 30 10
0 30 10
-10 40 10
0 40 10
0 30 0
10 30 0
0 40 0
10 40 0
0 30 10
10 30 10
0 40 10
10 40 10
10 30 0
20 30 0
10 40 0
20 40 0
10 30 10
20 30 10
10 40 10
20 40 10
20 30 0
30 30 0
20 40 0
30 40 0
20 30 10
30 30 10
20 40 10
30 40 10
30 30 0
40 30 0
30 40 0
40 40 0
30 30 10
40 30 10
30 40 10
40 40 10
40 30 0
50 30 0
40 40 0
50 40 0
40 30 10
50 30 10
40 40 10
50 40 10
-50 40 0
-40 40 0
-50 50 0
-40 50 0
-50 40 10
-40 40 10
-50 50 10
-40 50 10
-40 40 0
-30 40 0
-40 50 0
-30 50 0
-40 40 10
-30 40 10
-40 50 10
-30 50 10
-30 40 0
-20 40 0
-30 50 0
-20 50 0
-30 40 10
-20 40 10
-30 50 10
-20 50 10
-20 40 0
-10 40 0
-20 50 0
-10 50 0
-20 40 10
-10 40 10
-20 50 10
-10 50 10
-10 40 0
0 40 0
-10 50 0
0 50 0
-10 40 10
0 40 10
-10 50 10
0 50 10
0 40 0
10 40 0
0 50 0
10 50 0
0 40 10
10 40 10
0 50 10
10 50 10
10 40 0
20 40 0
10 50 0
20 50 0
10 40 10
20 40 10
10 50 10
20 50 10
20 40 0
30 40 0
20 50 0
30 50 0
20 40 10
30 40 10
20 50 10
30 50 10
30 40 0
40 40 0
30 50 0
40 50 0
30 40 10
40 40 10
30 50 10
40 50 10
40 40 0
50 40 0
40 50 0
50 50 0
40 40 10
50 40 10
40 50 10
50 50 10
-50 -50 10
-40 -50 10
-50 -40 10
-40 -40 10
-50 -50 20
-40 -50 20
-50 -40 20
-40 -40 20
-40 -50 10
-30 -50 10
-40 -40 10
-30 -40 10
-40 -50 20
-30 -50 20
-40 -40 20
-30 -40 20
-30 -50 10
-20 -50 10
-30 -40 10
-20 -40 10
-30 -50 20
-20 -50 20
-30 -40 20
-20 -40 20
-20 -50 10
-10 -50 10
-20 -40 10
-10 -40 10
-20 -50 20
-10 -50 20
-20 -40 20
-10 -40 20
-10 -50 10
0 -50 10
-10 -40 10
0 -40 10
-10 -50 20
0 -50 20
-10 -40 20
0 -40 20
0 -50 10
10 -50 10
0 -40 10
10 -40 10
0 -50 20
10 -50 20
0 -40 20
10 -40 20
10 -50 10
20 -50 10
10 -40 10
20 -40 10
10 -50 20
20 -50 20
10 -40 20
20 -40 20
20 -50 10
30 -50 10
20 -40 10
30 -40 10
20 -50 20
30 -50 20
20 -40 20
30 -40 20
30 -50 10
40 -50 10
30 -40 10
40 -40 10
30 -50 20
40 -50 20
30 -40 20
40 -40 20
40 -50 10
50 -50 10
40 -40 10
50 -40 10
40 -50 20
50 -50 20
40 -40 20
50 -40 20
-50 -40 10
-40 -40 10
-50 -30 10
-40 -30 10
-50 -40 20
-40 -40 20
-50 -30 20
-40 -30 20
-40 -40 10
-30 -40 10
-40 -30 10
-30 -30 10
-40 -40 20
-30 -40 20
-40 -30 20
-30 -30 20
-30 -40 10
-20 -40 10
-30 -30 10
-20 -30 10
-30 -40 20
-20 -40 20
-30 -30 20
-20 -30 20
-20 -40 10
-10 -40 10
-20 -30 10
-10 -30 10
-20 -40 20
-10 -40 20
-20 -30 20
-10 -30 20
-10 -40 10
0 -40 10
-10 -30 10
0 -30 10
-10 -40 20
0 -40 20
-10 -30 20
0 -30 20
0 -40 10
10 -40 10
0 -30 10
10 -30 10
0 -40 20
10 -40 20
0 -30 20
10 -30 20
10 -40 10
20 -40 10
10 -30 10
20 -30 10
10 -40 20
20 -40 20
10 -30 20
20 -30 20
20 -40 10
30 -40 10
20 -30 10
30 -30 10
20 -40 20
30 -40 20
20 -30 20
30 -30 20
30 -40 10
40 -40 10
30 -30 10
40 -30 10
30 -40 20
40 -40 20
30 -30 20
40 -30 20
40 -40 10
50 -40 10
40 -30 10
50 -30 10
40 -40 20
50 -40 20
40 -30 20
50 -30 20
-50 -30 10
-40 -30 10
-50 -20 10
-40 -20 10
-50 -30 20
-40 -30 20
-50 -20 20
-40 -20 20
-40 -30 10
-30 -30 10
-40 -20 10
-30 -20 10
-40 -30 20
-30 -30 20
-40 -20 20
-30 -20 20
-30 -30 10
-20 -30 10
-30 -20 10
-20 -20 10
-30 -30 20
-20 -30 20
-30 -20 20
-20 -20 20
-20 -30 10
-10 -30 10
-20 -20 10
-10 -20 10
-20 -30 20
-10 -30 20
-20 -20 20
-10 -20 20
-10 -30 10
0 -30 10
-10 -20 10
0 -20 10
-10 -30 20
0 -30 20
-10 -20 20
0 -20 20
-50 -20 10
-40 -20 10
-50 -10 10
-40 -10 10
-50 -20 20
-40 -20 20
-50 -10 20
-40 -10 20
-40 -20 10
-30 -20 10
-40 -10 10
-30 -10 10
-40 -20 20
-30 -20 20
-40 -10 20
-30 -10 20
-30 -20 10
-20 -20 10
-30 -10 10
-20 -10 10
-30 -20 20
-20 -20 20
-30 -10 20
-20 -10 20
-20 -20 10
-10 -20 10
-20 -10 10
-10 -10 10
-20 -20 20
-10 -20 20
-20 -10 20
-10 -10 20
-10 -20 10
0 -20 10
-10 -10 10
0 -10 10
-10 -20 20
0 -20 20
-10 -10 20
0 -10 20
-50 -10 10
-40 -10 10
-50 0 10
-40 0 10
-50 -10 20
-40 -10 20
-50 0 20
-40 0 20
-40 -10 10
-30 -10 10
-40 0 10
-30 0 10
-40 -10 20
-30 -10 20
-40 0 20
-30 0 20
-30 -10 10
-20 -10 10
-30 0 10
-20 0 10
-30 -10 20
-20 -10 20
-30 0 20
-20 0 20
-20 -10 10
-10 -10 10
-20 0 10
-10 0 10
-20 -10 20
-10 -10 20
-20 0 20
-10 0 20
-10 -10 10
0 -10 10
-10 0 10
0 0 10
-10 -10 20
0 -10 20
-10 0 20
0 0 20
-50 0 10
-40 0 10
-50 10 10
-40 10 10
-50 0 20
-40 0 20
-50 10 20
-40 10 20
-40 0 10
-30 0 10
-40 10 10
-30 10 10
-40 0 20
-30 0 20
-40 10 20
-30 10 20
-30 0 10
-20 0 10
-30 10 10
-20 10 10
-30 0 20
-20 0 20
-30 10 20
-20 10 20
-20 0 10
-10 0 10
-20 10 10
-10 10 10
-20 0 20
-10 0 20
-20 10 20
-10 10 20
-10 0 10
0 0 10
-10 10 10
0 10 10
-10 0 20
0 0 20
-10 10 20
0 10 20
-50 10 10
-40 10 10
-50 20 10
-40 20 10
-50 10 20
-40 10 20
-50 20 20
-40 20 20
-40 10 10
-30 10 10
-40 20 10
-30 20 10
-40 10 20
-30 10 20
-40 20 20
-30 20 20
-30 10 10
-20 10 10
-30 20 10
-20 20 10
-30 10 20
-20 10 20
-30 20 20
-20 20 20
-20 10 10
-10 10 10
-20 20 10
-10 20 10
-20 10 20
-10 10 20
-20 20 20
-10 20 20
-10 10 10
0 10 10
-10 20 10
0 20 10
-10 10 20
0 10 20
-10 20 20
0 20 20
-50 20 10
-40 20 10
-50 30 10
-40 30 10
-50 20 20
-40 20 20
-50 30 20
-40 30 20
-40 20 10
-30 20 10
-40 30 10
-30 30 10
-40 20 20
-30 20 20
-40 30 20
-30 30 20
-30 20 10
-20 20 10
-30 30 10
-20 30 10
-30 20 20
-20 20 20
-30 30 20
-20 30 20
-20 20 10
-10 20 10
-20 30 10
-10 30 10
-20 20 20
-10 20 20
-20 30 20
-10 30 20
-10 20 10
0 20 10
-10 30 10
0 30 10
-10 20 20
0 20 20
-10 30 20
0 30 20
-50 30 10
-40 30 10
-50 40 10
-40 40 10
-50 30 20
-40 30 20
-50 40 20
-40 40 20
-40 30 10
-30 30 10
-40 40 10
-30 40 10
-40 30 20
-30 30 20
-40 40 20
-30 40 20
-30 30 10
-20 30 10
-30 40 10
-20 40 10
-30 30 20
-20 30 20
-30 40 20
-20 40 20
-20 30 10
-10 30 10
-20 40 10
[...]
  <PointData Scalars="scalars">
    <DataArray type="Float32" Name="u" format="ascii">
0.168405 0.185128 0.177952 0.197468 0.167488 0.183906 0.176868 0.195987 0.185128 0.204041 0.197468 0.220912 0.183906 0.202409 0.195987 0.218845 0.204041 0.225456 0.220912 0.248856 0.202409 0.223269 0.218845 0.245913 0.225456 0.248887 0.248856 0.2817 0.223269 0.245958 0.245913 0.277482 0.248887 0.272816 0.2817 0.318384 0.245958 0.268982 0.277482 0.312269 0.272816 0.295422 0.318384 0.355616 0.268982 0.290484 0.312269 0.347147 0.295422 0.311742 0.355616 0.384607 0.290484 0.306039 0.347147 0.374315 0.311742 0.317754 0.384607 0.396274 0.306039 0.311692 0.374315 0.384644 0.317754 0.311275 0.396274 0.384495 0.311692 0.305556 0.384644 0.374208 0.311275 0.292577 0.384495 0.354775 0.305556 0.287973 0.374208 0.346544 0.177952 0.197468 0.186256 0.208997 0.176868 0.195987 0.185013 0.207243 0.197468 0.220912 0.208997 0.237364 0.195987 0.218845 0.207243 0.234794 0.220912 0.248856 0.237364 0.273127 0.218845 0.245913 0.234794 0.269262 0.248856 0.2817 0.273127 0.318322 0.245913 0.277482 0.269262 0.312207 0.2817 0.318384 0.318322 0.375702 0.277482 0.312269 0.312207 0.365887 0.318384 0.355616 0.375702 0.445882 0.312269 0.347147 0.365887 0.428962 0.355616 0.384607 0.445882 0.498733 0.347147 0.374315 0.428962 0.480305 0.384607 0.396274 0.498733 0.529359 0.374315 0.384644 0.480305 0.498986 0.396274 0.384495 0.529359 0.499025 0.384644 0.374208 0.498986 0.480719 0.384495 0.354775 0.499025 0.449496 0.374208 0.346544 0.480719 0.431341 0.186256 0.208997 0.19291 0.218598 0.185013 0.207243 0.191525 0.216586 0.208997 0.237364 0.218598 0.251615 0.207243 0.234794 0.216586 0.248562 0.237364 0.273127 0.251615 0.295723 0.234794 0.269262 0.248562 0.290875 0.273127 0.318322 0.295723 0.355853 0.269262 0.312207 0.290875 0.347275 0.318322 0.375702 0.355853 0.44503 0.312207 0.365887 0.347275 0.428669 0.498733 0.529359 0.716717 0.814481 0.480305 0.498986 0.654643 0.717211 0.529359 0.499025 0.814481 0.71786 0.498986 0.480719 0.717211 0.65569 0.19291 0.218598 0.197253 0.22504 0.191525 0.216586 0.195781 0.222793 0.218598 0.251615 0.22504 0.262069 0.216586 0.248562 0.222793 0.258796 0.251615 0.295723 0.262069 0.31187 0.248562 0.290875 0.258796 0.305885 0.295723 0.355853 0.31187 0.383366 0.290875 0.347275 0.305885 0.373008 0.355853 0.44503 0.383366 0.503078 0.347275 0.428669 0.373008 0.481239 0.197253 0.22504 0.198764 0.227351 0.195781 0.222793 0.197251 0.22504 0.22504 0.262069 0.227351 0.265537 0.222793 0.258796 0.22504 0.26207 0.262069 0.31187 0.265537 0.320026 0.258796 0.305885 0.26207 0.31187 0.198764 0.227351 0.197253 0.22504 0.197251 0.22504 0.195781 0.222793 0.227351 0.265537 0.22504 0.262069 0.22504 0.26207 0.222793 0.258796 0.265537 0.320026 0.262069 0.31187 0.26207 0.31187 0.258796 0.305885 0.197253 0.22504 0.19291 0.218598 0.195781 0.222793 0.191525 0.216586 0.22504 0.262069 0.218598 0.251615 0.222793 0.258796 0.216586 0.248562 0.262069 0.31187 0.251615 0.295723 0.258796 0.305885 0.248562 0.290875 0.31187 0.383366 0.295723 0.355852 0.305885 0.373008 0.290875 0.347275 0.383366 0.503077 0.355852 0.445029 0.373008 0.481238 0.347275 0.428668 0.19291 0.218598 0.186256 0.208997 0.191525 0.216586 0.185013 0.207243 0.218598 0.251615 0.208997 0.237364 0.216586 0.248562 0.207243 0.234794 0.251615 0.295723 0.237364 0.273126 0.248562 0.290875 0.234794 0.269261 0.295723 0.355852 0.273126 0.318321 0.290875 0.347275 0.269261 0.312207 0.355852 0.445029 0.318321 0.375701 0.347275 0.428668 0.312207 0.365887 0.716722 0.814497 0.498735 0.529362 0.654645 0.717217 0.480306 0.498987 0.814497 0.717866 0.529362 0.499026 0.717217 0.655691 0.498987 0.48072 0.186256 0.208997 0.177952 0.197468 0.185013 0.207243 0.176868 0.195987 0.208997 0.237364 0.197468 0.220912 0.207243 0.234794 0.195987 0.218845 0.237364 0.273126 0.220912 0.248856 0.234794 0.269261 0.218845 0.245913 0.273126 0.318321 0.248856 0.2817 0.269261 0.312207 0.245913 0.277482 0.318321 0.375701 0.2817 0.318384 0.312207 0.365887 0.277482 0.312269 0.375701 0.445883 0.318384 0.355617 0.365887 0.428962 0.312269 0.347147 0.445883 0.498735 0.355617 0.384608 0.428962 0.480306 0.347147 0.374316 0.498735 0.529362 0.384608 0.396276 0.480306 0.498987 0.374316 0.384644 0.529362 0.499026 0.396276 0.384496 0.498987 0.48072 0.384644 0.374209 0.499026 0.449497 0.384496 0.354776 0.48072 0.431342 0.374209 0.346544 0.177952 0.197468 0.168405 0.185128 0.176868 0.195987 0.167488 0.183906 0.197468 0.220912 0.185128 0.204041 0.195987 0.218845 0.183906 0.202409 0.220912 0.248856 0.204041 0.225456 0.218845 0.245913 0.202409 0.223268 0.248856 0.2817 0.225456 0.248887 0.245913 0.277482 0.223268 0.245958 0.2817 0.318384 0.248887 0.272816 0.277482 0.312269 0.245958 0.268982 0.318384 0.355617 0.272816 0.295423 0.312269 0.347147 0.268982 0.290485 0.355617 0.384608 0.295423 0.311742 0.347147 0.374316 0.290485 0.306039 0.384608 0.396276 0.311742 0.317755 0.374316 0.384644 0.306039 0.311692 0.396276 0.384496 0.317755 0.311275 0.384644 0.374209 0.311692 0.305557 0.384496 0.354776 0.311275 0.292577 0.374209 0.346544 0.305557 0.287974 0.167488 0.183906 0.176868 0.195987 0.164822 0.180376 0.173726 0.191731 0.183906 0.202409 0.195987 0.218845 0.180376 0.197734 0.191731 0.212963 0.202409 0.223269 0.218845 0.245913 0.197734 0.217045 0.212963 0.237682 0.223269 0.245958 0.245913 0.277482 0.217045 0.237745 0.237682 0.265798 0.245958 0.268982 0.277482 0.312269 0.237745 0.258381 0.265798 0.295953 0.268982 0.290484 0.312269 0.347147 0.258381 0.276481 0.295953 0.323859 0.290484 0.306039 0.347147 0.374315 0.276481 0.290468 0.323859 0.347166 0.306039 0.311692 0.374315 0.384644 0.290468 0.295307 0.347166 0.355703 0.311692 0.305556 0.384644 0.374208 0.295307 0.289073 0.355703 0.346869 0.305556 0.287973 0.374208 0.346544 0.289073 0.275346 0.346869 0.325177 0.176868 0.195987 0.185013 0.207243 0.173726 0.191731 0.181424 0.202232 0.195987 0.218845 0.207243 0.234794 0.191731 0.212963 0.202232 0.227568 0.218845 0.245913 0.234794 0.269262 0.212963 0.237682 0.227568 0.258434 0.245913 0.277482 0.269262 0.312207 0.237682 0.265798 0.258434 0.295942 0.277482 0.312269 0.312207 0.365887 0.265798 0.295953 0.295942 0.340131 0.312269 0.347147 0.365887 0.428962 0.295953 0.323859 0.340131 0.386913 0.347147 0.374315 0.428962 0.480305 0.323859 0.347166 0.386913 0.42919 0.374315 0.384644 0.480305 0.498986 0.347166 0.355703 0.42919 0.446168 0.384644 0.374208 0.498986 0.480719 0.355703 0.346869 0.446168 0.429258 0.374208 0.346544 0.480719 0.431341 0.346869 0.325177 0.429258 0.389164 0.185013 0.207243 0.191525 0.216586 0.181424 0.202232 0.187554 0.210846 0.207243 0.234794 0.216586 0.248562 0.202232 0.227568 0.210846 0.240048 0.234794 0.269262 0.248562 0.290875 0.227568 0.258434 0.240048 0.277138 0.269262 0.312207 0.290875 0.347275 0.258434 0.295942 0.277138 0.323805 0.312207 0.365887 0.347275 0.428669 0.295942 0.340131 0.323805 0.386883 0.191525 0.216586 0.195781 0.222793 0.187554 0.210846 0.191525 0.216588 0.216586 0.248562 0.222793 0.258796 0.210846 0.240048 0.216588 0.248561 0.248562 0.290875 0.258796 0.305885 0.240048 0.277138 0.248561 0.290861 0.290875 0.347275 0.305885 0.373008 0.277138 0.323805 0.290861 0.347252 0.347275 0.428669 0.373008 0.481239 0.323805 0.386883 0.347252 0.42871 0.195781 0.222793 0.197251 0.22504 0.191525 0.216588 0.192908 0.218601 0.222793 0.258796 0.22504 0.26207 0.216588 0.248561 0.218601 0.25161 0.258796 0.305885 0.26207 0.31187 0.248561 0.290861 0.25161 0.295736 0.305885 0.373008 0.31187 0.383359 0.290861 0.347252 0.295736 0.355888 0.373008 0.481239 0.383359 0.503089 0.347252 0.42871 0.355888 0.444893 0.197251 0.22504 0.195781 0.222793 0.192908 0.218601 0.191525 0.216588 0.22504 0.26207 0.222793 0.258796 0.218601 0.25161 0.216588 0.248561 0.26207 0.31187 0.258796 0.305885 0.25161 0.295736 0.248561 0.290861 0.31187 0.383359 0.305885 0.373008 0.295736 0.355888 0.290861 0.347251 0.383359 0.503089 0.373008 0.481238 0.355888 0.444893 0.347251 0.428709 0.195781 0.222793 0.191525 0.216586 0.191525 0.216588 0.187554 0.210846 0.222793 0.258796 0.216586 0.248562 0.216588 0.248561 0.210846 0.240048 0.258796 0.305885 0.248562 0.290875 0.248561 0.290861 0.240048 0.277138 0.305885 0.373008 0.290875 0.347275 0.290861 0.347251 0.277138 0.323804 0.373008 0.481238 0.347275 0.428668 0.347251 0.428709 0.323804 0.386883 0.191525 0.216586 0.185013 0.207243 0.187554 0.210846 0.181424 0.202232 0.216586 0.248562 0.207243 0.234794 0.210846 0.240048 0.202232 0.227568 0.248562 0.290875 0.234794 0.269261 0.240048 0.277138 0.227568 0.258434 0.290875 0.347275 0.269261 0.312207 0.277138 0.323804 0.258434 0.295942 0.347275 0.428668 0.312207 0.365887 0.323804 0.386883 0.295942 0.340131 0.185013 0.207243 0.176868 0.195987 0.181424 0.202232 0.173726 0.191731 0.207243 0.234794 0.195987 0.218845 0.202232 0.227568 0.191731 0.212962 0.234794 0.269261 0.218845 0.245913 0.227568 0.258434 0.212962 0.237682 0.269261 0.312207 0.245913 0.277482 0.258434 0.295942 0.237682 0.265798 0.312207 0.365887 0.277482 0.312269 0.295942 0.340131 0.265798 0.295953 0.365887 0.428962 0.312269 0.347147 0.340131 0.386913 0.295953 0.323859 0.428962 0.480306 0.347147 0.374316 0.386913 0.42919 0.323859 0.347166 0.480306 0.498987 0.374316 0.384644 0.42919 0.446169 0.347166 0.355703 0.498987 0.48072 0.384644 0.374209 0.446169 0.429258 0.355703 0.346869 0.48072 0.431342 0.374209 0.346544 0.429258 0.389164 0.346869 0.325178 0.176868 0.195987 0.167488 0.183906 0.173726 0.191731 0.164822 0.180376 0.195987 0.218845 0.183906 0.202409 0.191731 0.212962 0.180376 0.197734 0.218845 0.245913 0.202409 0.223268 0.212962 0.237682 0.197734 0.217045 0.245913 0.277482 0.223268 0.245958 0.237682 0.265798 0.217045 0.237744 0.277482 0.312269 0.245958 0.268982 0.265798 0.295953 0.237744 0.258381 0.312269 0.347147 0.268982 0.290485 0.295953 0.323859 0.258381 0.276481 0.347147 0.374316 0.290485 0.306039 0.323859 0.347166 0.276481 0.290468 0.374316 0.384644 0.306039 0.311692 0.347166 0.355703 0.290468 0.295307 0.384644 0.374209 0.311692 0.305557 0.355703 0.346869 0.295307 0.289073 0.374209 0.346544 0.305557 0.287974 0.346869 0.325178 0.289073 0.275346 0.164822 0.180376 0.173726 0.191731 0.160636 0.174905 0.168831 0.1852 0.180376 0.197734 0.191731 0.212963 0.174905 0.19059 0.1852 0.204114 0.197734 0.217045 0.212963 0.237682 0.19059 0.207703 0.204114 0.225565 0.217045 0.237745 0.237682 0.265798 0.207703 0.225645 0.225565 0.249164 0.237745 0.258381 0.265798 0.295953 0.225645 0.24313 0.249164 0.273518 0.258381 0.276481 0.295953 0.323859 0.24313 0.258318 0.273518 0.295911 0.276481 0.290468 0.323859 0.347166 0.258318 0.268993 0.295911 0.31203 0.290468 0.295307 0.347166 0.355703 0.268993 0.272659 0.31203 0.318986 0.295307 0.289073 0.355703 0.346869 0.272659 0.268962 0.318986 0.312041 0.289073 0.275346 0.346869 0.325177 0.268962 0.257399 0.312041 0.295748 0.173726 0.191731 0.181424 0.202232 0.168831 0.1852 0.175871 0.194613 0.191731 0.212963 0.202232 0.227568 0.1852 0.204114 0.194613 0.216856 0.212963 0.237682 0.227568 0.258434 0.204114 0.225565 0.216856 0.243099 0.237682 0.265798 0.258434 0.295942 0.225565 0.249164 0.243099 0.273523 0.265798 0.295953 0.295942 0.340131 0.249164 0.273518 0.273523 0.307037 0.295953 0.323859 0.340131 0.386913 0.273518 0.295911 0.307037 0.340113 0.323859 0.347166 0.386913 0.42919 0.295911 0.31203 0.340113 0.365588 0.347166 0.355703 0.42919 0.446168 0.31203 0.318986 0.365588 0.376739 0.355703 0.346869 0.446168 0.429258 0.318986 0.312041 0.376739 0.365648 0.346869 0.325177 0.429258 0.389164 0.312041 0.295748 0.365648 0.340936 0.181424 0.202232 0.187554 0.210846 0.175871 0.194613 0.181437 0.202241 0.202232 0.227568 0.210846 0.240048 0.194613 0.216856 0.202241 0.227564 0.227568 0.258434 0.240048 0.277138 0.216856 0.243099 0.227564 0.258399 0.258434 0.295942 0.277138 0.323805 0.243099 0.273523 0.258399 0.295887 0.295942 0.340131 0.323805 0.386883 0.273523 0.307037 0.295887 0.340058 0.340131 0.386913 0.386883 0.459921 0.307037 0.340113 0.340058 0.386831 0.187554 0.210846 0.191525 0.216588 0.181437 0.202241 0.185028 0.207257 0.210846 0.240048 0.216588 0.248561 0.202241 0.227564 0.207257 0.234785 0.240048 0.277138 0.248561 0.290861 0.227564 0.258399 0.234785 0.269264 0.277138 0.323805 0.290861 0.347252 0.258399 0.295887 0.269264 0.311939 0.323805 0.386883 0.347252 0.42871 0.295887 0.340058 0.311939 0.36548 0.191525 0.216588 0.192908 0.218601 0.185028 0.207257 0.186271 0.20901 0.216588 0.248561 0.218601 0.25161 0.207257 0.234785 0.20901 0.237364 0.248561 0.290861 0.25161 0.295736 0.234785 0.269264 0.237364 0.27306 0.290861 0.347252 0.295736 0.355888 0.269264 0.311939 0.27306 0.318853 0.347252 0.42871 0.355888 0.444893 0.311939 0.36548 0.318853 0.376601 0.654715 0.717341 0.716862 0.814772 0.480244 0.498973 0.498711 0.529371 0.717341 0.655736 0.814772 0.717954 0.498973 0.48072 0.529371 0.499011 0.192908 0.218601 0.191525 0.216588 0.186271 0.20901 0.185028 0.207257 0.218601 0.25161 0.216588 0.248561 0.20901 0.237364 0.207257 0.234785 0.25161 0.295736 0.248561 0.290861 0.237364 0.27306 0.234785 0.269264 0.295736 0.355888 0.290861 0.347251 0.27306 0.318853 0.269264 0.311939 0.355888 0.444893 0.347251 0.428709 0.318853 0.376601 0.311939 0.36548 0.716862 0.814772 0.654712 0.717335 0.498711 0.529371 0.480244 0.498973 0.814772 0.717954 0.717335 0.655732 0.529371 0.499011 0.498973 0.480719 0.191525 0.216588 0.187554 0.210846 0.185028 0.207257 0.181437 0.202241 0.216588 0.248561 0.210846 0.240048 0.207257 0.234785 0.202241 0.227564 0.248561 0.290861 0.240048 0.277138 0.234785 0.269264 0.227564 0.258399 0.290861 0.347251 0.277138 0.323804 0.269264 0.311939 0.258399 0.295887 0.347251 0.428709 0.323804 0.386883 0.311939 0.36548 0.295887 0.340058 0.187554 0.210846 0.181424 0.202232 0.181437 0.202241 0.175871 0.194613 0.210846 0.240048 0.202232 0.227568 0.202241 0.227564 0.194613 0.216856 0.240048 0.277138 0.227568 0.258434 0.227564 0.258399 0.216856 0.243099 0.277138 0.323804 0.258434 0.295942 0.258399 0.295887 0.243099 0.273523 0.323804 0.386883 0.295942 0.340131 0.295887 0.340058 0.273523 0.307037 0.386883 0.45992 0.340131 0.386913 0.340058 0.38683 0.307037 0.340113 0.181424 0.202232 0.173726 0.191731 0.175871 0.194613 0.168831 0.1852 0.202232 0.227568 0.191731 0.212962 0.194613 0.216856 0.1852 0.204114 0.227568 0.258434 0.212962 0.237682 0.216856 0.243099 0.204114 0.225565 0.258434 0.295942 0.237682 0.265798 0.243099 0.273523 0.225565 0.249164 0.295942 0.340131 0.265798 0.295953 0.273523 0.307037 0.249164 0.273518 0.340131 0.386913 0.295953 0.323859 0.307037 0.340113 0.273518 0.295911 0.386913 0.42919 0.323859 0.347166 0.340113 0.365588 0.295911 0.31203 0.42919 0.446169 0.347166 0.355703 0.365588 0.376739 0.31203 0.318986 0.446169 0.429258 0.355703 0.346869 0.376739 0.365647 0.318986 0.312041 0.429258 0.389164 0.346869 0.325178 0.365647 0.340935 0.312041 0.295748 0.173726 0.191731 0.164822 0.180376 0.168831 0.1852 0.160636 0.174905 0.191731 0.212962 0.180376 0.197734 0.1852 0.204114 0.174905 0.19059 0.212962 0.237682 0.197734 0.217045 0.204114 0.225565 0.19059 0.207703 0.237682 0.265798 0.217045 0.237744 0.225565 0.249164 0.207703 0.225645 0.265798 0.295953 0.237744 0.258381 0.249164 0.273518 0.225645 0.24313 0.295953 0.323859 0.258381 0.276481 0.273518 0.295911 0.24313 0.258318 0.323859 0.347166 0.276481 0.290468 0.295911 0.31203 0.258318 0.268993 0.347166 0.355703 0.290468 0.295307 0.31203 0.318986 0.268993 0.272659 0.355703 0.346869 0.295307 0.289073 0.318986 0.312041 0.272659 0.268962 0.346869 0.325178 0.289073 0.275346 0.312041 0.295748 0.268962 0.257399 0.160636 0.174905 0.168831 0.1852 0.155258 0.167997 0.162603 0.177059 0.174905 0.19059 0.1852 0.204114 0.167997 0.18174 0.177059 0.193357 0.19059 0.207703 0.204114 0.225565 0.18174 0.196389 0.193357 0.211283 0.207703 0.225645 0.225565 0.249164 0.196389 0.211352 0.211283 0.230281 0.225645 0.24313 0.249164 0.273518 0.211352 0.225595 0.230281 0.249117 0.24313 0.258318 0.273518 0.295911 0.225595 0.237647 0.249117 0.26568 0.258318 0.268993 0.295911 0.31203 0.237647 0.245835 0.26568 0.277367 0.268993 0.272659 0.31203 0.318986 0.245835 0.248781 0.277367 0.281573 0.272659 0.268962 0.318986 0.312041 0.248781 0.245704 0.281573 0.27724 0.268962 0.257399 0.312041 0.295748 0.245704 0.236923 0.27724 0.265528 0.168831 0.1852 0.175871 0.194613 0.162603 0.177059 0.168869 0.185234 0.1852 0.204114 0.194613 0.216856 0.177059 0.193357 0.185234 0.204093 0.204114 0.225565 0.216856 0.243099 0.193357 0.211283 0.204093 0.225516 0.225565 0.249164 0.243099 0.273523 0.211283 0.230281 0.225516 0.249102 0.249164 0.273518 0.273523 0.307037 0.230281 0.249117 0.249102 0.273461 0.273518 0.295911 0.307037 0.340113 0.249117 0.26568 0.273461 0.295815 0.295911 0.31203 0.340113 0.365588 0.26568 0.277367 0.295815 0.311837 0.31203 0.318986 0.365588 0.376739 0.277367 0.281573 0.311837 0.318809 0.318986 0.312041 0.376739 0.365648 0.281573 0.27724 0.318809 0.311913 0.312041 0.295748 0.365648 0.340936 0.27724 0.265528 0.311913 0.295588 0.175871 0.194613 0.181437 0.202241 0.168869 0.185234 0.173783 0.19178 0.194613 0.216856 0.202241 0.227564 0.185234 0.204093 0.19178 0.212938 0.216856 0.243099 0.227564 0.258399 0.204093 0.225516 0.212938 0.237611 0.243099 0.273523 0.258399 0.295887 0.225516 0.249102 0.237611 0.265675 0.273523 0.307037 0.295887 0.340058 0.249102 0.273461 0.265675 0.295802 0.307037 0.340113 0.340058 0.386831 0.273461 0.295815 0.295802 0.323523 0.340113 0.365588 0.386831 0.42912 0.295815 0.311837 0.323523 0.346995 0.365588 0.376739 0.42912 0.446127 0.311837 0.318809 0.346995 0.355572 0.376739 0.365648 0.446127 0.429321 0.318809 0.311913 0.355572 0.34713 0.365648 0.340936 0.429321 0.389233 0.311913 0.295588 0.34713 0.324692 0.181437 0.202241 0.185028 0.207257 0.173783 0.19178 0.176931 0.196044 0.202241 0.227564 0.207257 0.234785 0.19178 0.212938 0.196044 0.218824 0.227564 0.258399 0.234785 0.269264 0.212938 0.237611 0.218824 0.245843 0.258399 0.295887 0.269264 0.311939 0.237611 0.265675 0.245843 0.277386 0.295887 0.340058 0.311939 0.36548 0.265675 0.295802 0.277386 0.31181 0.340058 0.386831 0.36548 0.428929 0.295802 0.323523 0.31181 0.346949 0.386831 0.42912 0.428929 0.480244 0.323523 0.346995 0.346949 0.374147 0.42912 0.446127 0.480244 0.498973 0.346995 0.355572 0.374147 0.384524 0.446127 0.429321 0.498973 0.48072 0.355572 0.34713 0.384524 0.374243 0.429321 0.389233 0.48072 0.431269 0.34713 0.324692 0.374243 0.346628 0.185028 0.207257 0.186271 0.20901 0.176931 0.196044 0.178016 0.197529 0.207257 0.234785 0.20901 0.237364 0.196044 0.218824 0.197529 0.220889 0.234785 0.269264 0.237364 0.27306 0.218824 0.245843 0.220889 0.248813 0.269264 0.311939 0.27306 0.318853 0.245843 0.277386 0.248813 0.28163 0.311939 0.36548 0.318853 0.376601 0.277386 0.31181 0.28163 0.318721 0.36548 0.428929 0.376601 0.445676 0.31181 0.346949 0.318721 0.355483 0.428929 0.480244 0.445676 0.498711 0.346949 0.374147 0.355483 0.384456 0.480244 0.498973 0.498711 0.529371 0.374147 0.384524 0.384456 0.396179 0.498973 0.48072 0.529371 0.499011 0.384524 0.374243 0.396179 0.384533 0.48072 0.431269 0.499011 0.449351 0.374243 0.346628 0.384533 0.354916 0.186271 0.20901 0.185028 0.207257 0.178016 0.197529 0.176931 0.196044 0.20901 0.237364 0.207257 0.234785 0.197529 0.220889 0.196044 0.218824 0.237364 0.27306 0.234785 0.269264 0.220889 0.248813 0.218824 0.245843 0.27306 0.318853 0.269264 0.311939 0.248813 0.28163 0.245843 0.277386 0.318853 0.376601 0.311939 0.36548 0.28163 0.318721 0.277386 0.31181 0.376601 0.445676 0.36548 0.428928 0.318721 0.355483 0.31181 0.346949 0.445676 0.498711 0.428928 0.480244 0.355483 0.384456 0.346949 0.374146 0.498711 0.529371 0.480244 0.498973 0.384456 0.396179 0.374146 0.384524 0.529371 0.499011 0.498973 0.480719 0.396179 0.384533 0.384524 0.374243 0.499011 0.449351 0.480719 0.431269 0.384533 0.354916 0.374243 0.346627 0.185028 0.207257 0.181437 0.202241 0.176931 0.196044 0.173783 0.19178 0.207257 0.234785 0.202241 0.227564 0.196044 0.218824 0.19178 0.212938 0.234785 0.269264 0.227564 0.258399 0.218824 0.245843 0.212938 0.237611 0.269264 0.311939 0.25839