<?xml version="1.0" ?> 
<!-- 
# vtk DataFile Version 3.0
#This file was generated by the deal.II library on 16:50:12 at 2019/11/27
-->
<VTKFile type="UnstructuredGrid" version="0.1" byte_order="LittleEndian">
<UnstructuredGrid>
<Piece NumberOfPoints="16512" NumberOfCells="2064" >
  <Points>
    <DataArray type="Float32" NumberOfComponents="3" format="ascii">
-50 -50 0
-40 -50 0
-50 -40 0
-40 -40 0
-50 -50 10
-40 -50 10
-50 -40 10
-40 -40 10
-40 -50 0
-30 -50 0
-40 -40 0
-30 -40 0
-40 -50 10
-30 -50 10
-40 -40 10
-30 -40 10
-30 -50 0
-20 -50 0
-30 -40 0
-20 -40 0
-30 -50 10
-20 -50 10
-30 -40 10
-20 -40 10
-20 -50 0
-10 -50 0
-20 -40 0
-10 -40 0
-20 -50 10
-10 -50 10
-20 -40 10
-10 -40 10
-10 -50 0
0 -50 0
-10 -40 0
0 -40 0
-10 -50 10
0 -50 10
-10 -40 10
0 -40 10
0 -50 0
10 -50 0
0 -40 0
10 -40 0
0 -50 10
10 -50 10
0 -40 10
10 -40 10
10 -50 0
20 -50 0
10 -40 0
20 -40 0
10 -50 10
20 -50 10
10 -40 10
20 -40 10
20 -50 0
30 -50 0
20 -40 0
30 -40 0
20 -50 10
30 -50 10
20 -40 10
30 -40 10
30 -50 0
40 -50 0
30 -40 0
40 -40 0
30 -50 10
40 -50 10
30 -40 10
40 -40 10
40 -50 0
50 -50 0
40 -40 0
50 -40 0
40 -50 10
50 -50 10
40 -40 10
50 -40 10
-50 -40 0
-40 -40 0
-50 -30 0
-40 -30 0
-50 -40 10
-40 -40 10
-50 -30 10
-40 -30 10
-40 -40 0
-30 -40 0
-40 -30 0
-30 -30 0
-40 -40 10
-30 -40 10
-40 -30 10
-30 -30 10
-30 -40 0
-20 -40 0
-30 -30 0
-20 -30 0
-30 -40 10
-20 -40 10
-30 -30 10
-20 -30 10
-20 -40 0
-10 -40 0
-20 -30 0
-10 -30 0
-20 -40 10
-10 -40 10
-20 -30 10
-10 -30 10
-10 -40 0
0 -40 0
-10 -30 0
0 -30 0
-10 -40 10
0 -40 10
-10 -30 10
0 -30 10
0 -40 0
10 -40 0
0 -30 0
10 -30 0
0 -40 10
10 -40 10
0 -30 10
10 -30 10
10 -40 0
20 -40 0
10 -30 0
20 -30 0
10 -40 10
20 -40 10
10 -30 10
20 -30 10
20 -40 0
30 -40 0
20 -30 0
30 -30 0
20 -40 10
30 -40 10
20 -30 10
30 -30 10
30 -40 0
40 -40 0
30 -30 0
40 -30 0
30 -40 10
40 -40 10
30 -30 10
40 -30 10
40 -40 0
50 -40 0
40 -30 0
50 -30 0
40 -40 10
50 -40 10
40 -30 10
50 -30 10
-50 -30 0
-40 -30 0
-50 -20 0
-40 -20 0
-50 -30 10
-40 -30 10
-50 -20 10
-40 -20 10
-40 -30 0
-30 -30 0
-40 -20 0
-30 -20 0
-40 -30 10
-30 -30 10
-40 -20 10
-30 -20 10
-30 -30 0
-20 -30 0
-30 -20 0
-20 -20 0
-30 -30 10
-20 -30 10
-30 -20 10
-20 -20 10
-20 -30 0
-10 -30 0
-20 -20 0
-10 -20 0
-20 -30 10
-10 -30 10
-20 -20 10
-10 -20 10
-10 -30 0
0 -30 0
-10 -20 0
0 -20 0
-10 -30 10
0 -30 10
-10 -20 10
0 -20 10
0 -30 0
10 -30 0
0 -20 0
10 -20 0
0 -30 10
10 -30 10
0 -20 10
10 -20 10
20 -30 0
30 -30 0
20 -20 0
30 -20 0
20 -30 10
30 -30 10
20 -20 10
30 -20 10
30 -30 0
40 -30 0
30 -20 0
40 -20 0
30 -30 10
40 -30 10
30 -20 10
40 -20 10
40 -30 0
50 -30 0
40 -20 0
50 -20 0
40 -30 10
50 -30 10
40 -20 10
50 -20 10
-50 -20 0
-40 -20 0
-50 -10 0
-40 -10 0
-50 -20 10
-40 -20 10
-50 -10 10
-40 -10 10
-40 -20 0
-30 -20 0
-40 -10 0
-30 -10 0
-40 -20 10
-30 -20 10
-40 -10 10
-30 -10 10
-30 -20 0
-20 -20 0
-30 -10 0
-20 -10 0
-30 -20 10
-20 -20 10
-30 -10 10
-20 -10 10
-20 -20 0
-10 -20 0
-20 -10 0
-10 -10 0
-20 -20 10
-10 -20 10
-20 -10 10
-10 -10 10
-10 -20 0
0 -20 0
-10 -10 0
0 -10 0
-10 -20 10
0 -20 10
-10 -10 10
0 -10 10
0 -20 0
10 -20 0
0 -10 0
10 -10 0
0 -20 10
10 -20 10
0 -10 10
10 -10 10
-50 -10 0
-40 -10 0
-50 0 0
-40 0 0
-50 -10 10
-40 -10 10
-50 0 10
-40 0 10
-40 -10 0
-30 -10 0
-40 0 0
-30 0 0
-40 -10 10
-30 -10 10
-40 0 10
-30 0 10
-30 -10 0
-20 -10 0
-30 0 0
-20 0 0
-30 -10 10
-20 -10 10
-30 0 10
-20 0 10
-20 -10 0
-10 -10 0
-20 0 0
-10 0 0
-20 -10 10
-10 -10 10
-20 0 10
-10 0 10
-50 0 0
-40 0 0
-50 10 0
-40 10 0
-50 0 10
-40 0 10
-50 10 10
-40 10 10
-40 0 0
-30 0 0
-40 10 0
-30 10 0
-40 0 10
-30 0 10
-40 10 10
-30 10 10
-30 0 0
-20 0 0
-30 10 0
-20 10 0
-30 0 10
-20 0 10
-30 10 10
-20 10 10
-20 0 0
-10 0 0
-20 10 0
-10 10 0
-20 0 10
-10 0 10
-20 10 10
-10 10 10
-50 10 0
-40 10 0
-50 20 0
-40 20 0
-50 10 10
-40 10 10
-50 20 10
-40 20 10
-40 10 0
-30 10 0
-40 20 0
-30 20 0
-40 10 10
-30 10 10
-40 20 10
-30 20 10
-30 10 0
-20 10 0
-30 20 0
-20 20 0
-30 10 10
-20 10 10
-30 20 10
-20 20 10
-20 10 0
-10 10 0
-20 20 0
-10 20 0
-20 10 10
-10 10 10
-20 20 10
-10 20 10
-10 10 0
0 10 0
-10 20 0
0 20 0
-10 10 10
0 10 10
-10 20 10
0 20 10
0 10 0
10 10 0
0 20 0
10 20 0
0 10 10
10 10 10
0 20 10
10 20 10
-50 20 0
-40 20 0
-50 30 0
-40 30 0
-50 20 10
-40 20 10
-50 30 10
-40 30 10
-40 20 0
-30 20 0
-40 30 0
-30 30 0
-40 20 10
-30 20 10
-40 30 10
-30 30 10
-30 20 0
-20 20 0
-30 30 0
-20 30 0
-30 20 10
-20 20 10
-30 30 10
-20 30 10
-20 20 0
-10 20 0
-20 30 0
-10 30 0
-20 20 10
-10 20 10
-20 30 10
-10 30 10
-10 20 0
0 20 0
-10 30 0
0 30 0
-10 20 10
0 20 10
-10 30 10
0 30 10
0 20 0
10 20 0
0 30 0
10 30 0
0 20 10
10 20 10
0 30 10
10 30 10
20 20 0
30 20 0
20 30 0
30 30 0
20 20 10
30 20 10
20 30 10
30 30 10
30 20 0
40 20 0
30 30 0
40 30 0
30 20 10
40 20 10
30 30 10
40 30 10
40 20 0
50 20 0
40 30 0
50 30 0
40 20 10
50 20 10
40 30 10
50 30 10
-50 30 0
-40 30 0
-50 40 0
-40 40 0
-50 30 10
-40 30 10
-50 40 10
-40 40 10
-40 30 0
-30 30 0
-40 40 0
-30 40 0
-40 30 10
-30 30 10
-40 40 10
-30 40 10
-30 30 0
-20 30 0
-30 40 0
-20 40 0
-30 30 10
-20 30 10
-30 40 10
-20 40 10
-20 30 0
-10 30 0
-20 40 0
-10 40 0
-20 30 10
-10 30 10
-20 40 10
-10 40 10
-10 30 0
0 30 0
-10 40 0
0 40 0
-10 30 10
0 30 10
-10 40 10
0 40 10
0 30 0
10 30 0
0 40 0
10 40 0
0 30 10
10 30 10
0 40 10
10 40 10
10 30 0
20 30 0
10 40 0
20 40 0
10 30 10
20 30 10
10 40 10
20 40 10
20 30 0
30 30 0
20 40 0
30 40 0
20 30 10
30 30 10
20 40 10
30 40 10
30 30 0
40 30 0
30 40 0
40 40 0
30 30 10
40 30 10
30 40 10
40 40 10
40 30 0
50 30 0
40 40 0
50 40 0
40 30 10
50 30 10
40 40 10
50 40 10
-50 40 0
-40 40 0
-50 50 0
-40 50 0
-50 40 10
-40 40 10
-50 50 10
-40 50 10
-40 40 0
-30 40 0
-40 50 0
-30 50 0
-40 40 10
-30 40 10
-40 50 10
-30 50 10
-30 40 0
-20 40 0
-30 50 0
-20 50 0
-30 40 10
-20 40 10
-30 50 10
-20 50 10
-20 40 0
-10 40 0
-20 50 0
-10 50 0
-20 40 10
-10 40 10
-20 50 10
-10 50 10
-10 40 0
0 40 0
-10 50 0
0 50 0
-10 40 10
0 40 10
-10 50 10
0 50 10
0 40 0
10 40 0
0 50 0
10 50 0
0 40 10
10 40 10
0 50 10
10 50 10
10 40 0
20 40 0
10 50 0
20 50 0
10 40 10
20 40 10
10 50 10
20 50 10
20 40 0
30 40 0
20 50 0
30 50 0
20 40 10
30 40 10
20 50 10
30 50 10
30 40 0
40 40 0
30 50 0
40 50 0
30 40 10
40 40 10
30 50 10
40 50 10
40 40 0
50 40 0
40 50 0
50 50 0
40 40 10
50 40 10
40 50 10
50 50 10
-50 -50 10
-40 -50 10
-50 -40 10
-40 -40 10
-50 -50 20
-40 -50 20
-50 -40 20
-40 -40 20
-40 -50 10
-30 -50 10
-40 -40 10
-30 -40 10
-40 -50 20
-30 -50 20
-40 -40 20
-30 -40 20
-30 -50 10
-20 -50 10
-30 -40 10
-20 -40 10
-30 -50 20
-20 -50 20
-30 -40 20
-20 -40 20
-20 -50 10
-10 -50 10
-20 -40 10
-10 -40 10
-20 -50 20
-10 -50 20
-20 -40 20
-10 -40 20
-10 -50 10
0 -50 10
-10 -40 10
0 -40 10
-10 -50 20
0 -50 20
-10 -40 20
0 -40 20
0 -50 10
10 -50 10
0 -40 10
10 -40 10
0 -50 20
10 -50 20
0 -40 20
10 -40 20
10 -50 10
20 -50 10
10 -40 10
20 -40 10
10 -50 20
20 -50 20
10 -40 20
20 -40 20
20 -50 10
30 -50 10
20 -40 10
30 -40 10
20 -50 20
30 -50 20
20 -40 20
30 -40 20
30 -50 10
40 -50 10
30 -40 10
40 -40 10
30 -50 20
40 -50 20
30 -40 20
40 -40 20
40 -50 10
50 -50 10
40 -40 10
50 -40 10
40 -50 20
50 -50 20
40 -40 20
50 -40 20
-50 -40 10
-40 -40 10
-50 -30 10
-40 -30 10
-50 -40 20
-40 -40 20
-50 -30 20
-40 -30 20
-40 -40 10
-30 -40 10
-40 -30 10
-30 -30 10
-40 -40 20
-30 -40 20
-40 -30 20
-30 -30 20
-30 -40 10
-20 -40 10
-30 -30 10
-20 -30 10
-30 -40 20
-20 -40 20
-30 -30 20
-20 -30 20
-20 -40 10
-10 -40 10
-20 -30 10
-10 -30 10
-20 -40 20
-10 -40 20
-20 -30 20
-10 -30 20
-10 -40 10
0 -40 10
-10 -30 10
0 -30 10
-10 -40 20
0 -40 20
-10 -30 20
0 -30 20
0 -40 10
10 -40 10
0 -30 10
10 -30 10
0 -40 20
10 -40 20
0 -30 20
10 -30 20
10 -40 10
20 -40 10
10 -30 10
20 -30 10
10 -40 20
20 -40 20
10 -30 20
20 -30 20
20 -40 10
30 -40 10
20 -30 10
30 -30 10
20 -40 20
30 -40 20
20 -30 20
30 -30 20
30 -40 10
40 -40 10
30 -30 10
40 -30 10
30 -40 20
40 -40 20
30 -30 20
40 -30 20
40 -40 10
50 -40 10
40 -30 10
50 -30 10
40 -40 20
50 -40 20
40 -30 20
50 -30 20
-50 -30 10
-40 -30 10
-50 -20 10
-40 -20 10
-50 -30 20
-40 -30 20
-50 -20 20
-40 -20 20
-40 -30 10
-30 -30 10
-40 -20 10
-30 -20 10
-40 -30 20
-30 -30 20
-40 -20 20
-30 -20 20
-30 -30 10
-20 -30 10
-30 -20 10
-20 -20 10
-30 -30 20
-20 -30 20
-30 -20 20
-20 -20 20
-20 -30 10
-10 -30 10
-20 -20 10
-10 -20 10
-20 -30 20
-10 -30 20
-20 -20 20
-10 -20 20
-10 -30 10
0 -30 10
-10 -20 10
0 -20 10
-10 -30 20
0 -30 20
-10 -20 20
0 -20 20
30 -30 10
40 -30 10
30 -20 10
40 -20 10
30 -30 20
40 -30 20
30 -20 20
40 -20 20
-50 -20 10
-40 -20 10
-50 -10 10
-40 -10 10
-50 -20 20
-40 -20 20
-50 -10 20
-40 -10 20
-40 -20 10
-30 -20 10
-40 -10 10
-30 -10 10
-40 -20 20
-30 -20 20
-40 -10 20
-30 -10 20
-30 -20 10
-20 -20 10
-30 -10 10
-20 -10 10
-30 -20 20
-20 -20 20
-30 -10 20
-20 -10 20
-20 -20 10
-10 -20 10
-20 -10 10
-10 -10 10
-20 -20 20
-10 -20 20
-20 -10 20
-10 -10 20
-10 -20 10
0 -20 10
-10 -10 10
0 -10 10
-10 -20 20
0 -20 20
-10 -10 20
0 -10 20
-50 -10 10
-40 -10 10
-50 0 10
-40 0 10
-50 -10 20
-40 -10 20
-50 0 20
-40 0 20
-40 -10 10
-30 -10 10
-40 0 10
-30 0 10
-40 -10 20
-30 -10 20
-40 0 20
-30 0 20
-30 -10 10
-20 -10 10
-30 0 10
-20 0 10
-30 -10 20
-20 -10 20
-30 0 20
-20 0 20
-20 -10 10
-10 -10 10
-20 0 10
-10 0 10
-20 -10 20
-10 -10 20
-20 0 20
-10 0 20
-10 -10 10
0 -10 10
-10 0 10
0 0 10
-10 -10 20
0 -10 20
-10 0 20
0 0 20
0 -10 10
10 -10 10
0 0 10
10 0 10
0 -10 20
10 -10 20
0 0 20
10 0 20
-50 0 10
-40 0 10
-50 10 10
-40 10 10
-50 0 20
-40 0 20
-50 10 20
-40 10 20
-40 0 10
-30 0 10
-40 10 10
-30 10 10
-40 0 20
-30 0 20
-40 10 20
-30 10 20
-30 0 10
-20 0 10
-30 10 10
-20 10 10
-30 0 20
-20 0 20
-30 10 20
-20 10 20
-20 0 10
-10 0 10
-20 10 10
-10 10 10
-20 0 20
-10 0 20
-20 10 20
-10 10 20
-10 0 10
0 0 10
-10 10 10
0 10 10
-10 0 20
0 0 20
-10 10 20
0 10 20
0 0 10
10 0 10
0 10 10
10 10 10
0 0 20
10 0 20
0 10 20
10 10 20
-50 10 10
-40 10 10
-50 20 10
-40 20 10
-50 10 20
-40 10 20
-50 20 20
-40 20 20
-40 10 10
-30 10 10
-40 20 10
-30 20 10
-40 10 20
-30 10 20
-40 20 20
-30 20 20
-30 10 10
-20 10 10
-30 20 10
-20 20 10
-30 10 20
-20 10 20
-30 20 20
-20 20 20
-20 10 10
-10 10 10
-20 20 10
-10 20 10
[...]
  <PointData Scalars="scalars">
    <DataArray type="Float32" Name="u" format="ascii">
0.161123 0.176657 0.169419 0.187284 0.160319 0.175594 0.168483 0.186019 0.176657 0.194309 0.187284 0.208709 0.175594 0.192901 0.186019 0.206958 0.194309 0.2145 0.208709 0.2343 0.192901 0.212603 0.206958 0.231858 0.2145 0.237054 0.2343 0.264796 0.212603 0.234527 0.231858 0.26122 0.237054 0.261189 0.264796 0.299761 0.234527 0.257778 0.26122 0.294802 0.261189 0.284401 0.299761 0.337756 0.257778 0.279998 0.294802 0.330574 0.284401 0.304953 0.337756 0.372061 0.279998 0.299474 0.330574 0.362534 0.304953 0.316752 0.372061 0.394175 0.299474 0.310623 0.362534 0.382393 0.316752 0.316386 0.394175 0.394017 0.310623 0.310267 0.382393 0.382223 0.316386 0.30247 0.394017 0.371217 0.310267 0.297196 0.382223 0.361558 0.169419 0.187284 0.176544 0.197036 0.168483 0.186019 0.175481 0.195566 0.187284 0.208709 0.197036 0.222393 0.186019 0.206958 0.195566 0.220273 0.208709 0.2343 0.222393 0.254276 0.206958 0.231858 0.220273 0.251008 0.2343 0.264796 0.254276 0.294223 0.231858 0.26122 0.251008 0.289543 0.264796 0.299761 0.294223 0.346251 0.26122 0.294802 0.289543 0.337668 0.299761 0.337756 0.346251 0.410215 0.294802 0.330574 0.337668 0.396539 0.337756 0.372061 0.410215 0.472896 0.330574 0.362534 0.396539 0.456208 0.372061 0.394175 0.472896 0.523075 0.362534 0.382393 0.456208 0.492349 0.394175 0.394017 0.523075 0.523308 0.382393 0.382223 0.492349 0.492774 0.394017 0.371217 0.523308 0.474327 0.382223 0.361558 0.492774 0.455264 0.176544 0.197036 0.182188 0.205037 0.175481 0.195566 0.181029 0.203342 0.197036 0.222393 0.205037 0.234001 0.195566 0.220273 0.203342 0.231559 0.222393 0.254276 0.234001 0.272385 0.220273 0.251008 0.231559 0.267883 0.254276 0.294223 0.272385 0.323182 0.251008 0.289543 0.267883 0.316513 0.294223 0.346251 0.323182 0.395515 0.289543 0.337668 0.316513 0.383577 0.346251 0.410215 0.395515 0.501527 0.337668 0.396539 0.383577 0.475586 0.472896 0.523075 0.641399 0.784357 0.456208 0.492349 0.595121 0.695459 0.523075 0.523308 0.784357 0.783481 0.492349 0.492774 0.695459 0.695958 0.523308 0.474327 0.783481 0.652653 0.492774 0.455264 0.695958 0.598956 0.182188 0.205037 0.18587 0.210295 0.181029 0.203342 0.184603 0.208556 0.205037 0.234001 0.210295 0.24277 0.203342 0.231559 0.208556 0.239244 0.234001 0.272385 0.24277 0.284424 0.231559 0.267883 0.239244 0.279897 0.272385 0.323182 0.284424 0.344791 0.267883 0.316513 0.279897 0.337013 0.323182 0.395515 0.344791 0.438214 0.316513 0.383577 0.337013 0.419587 0.395515 0.501527 0.438214 0.596096 0.383577 0.475586 0.419587 0.555269 0.18587 0.210295 0.187113 0.212282 0.184603 0.208556 0.18587 0.2103 0.210295 0.24277 0.212282 0.245195 0.208556 0.239244 0.2103 0.242784 0.24277 0.284424 0.245195 0.289067 0.239244 0.279897 0.242784 0.284401 0.284424 0.344791 0.289067 0.357147 0.279897 0.337013 0.284401 0.344998 0.187113 0.212282 0.18587 0.210295 0.18587 0.2103 0.184603 0.208556 0.212282 0.245195 0.210295 0.24277 0.2103 0.242784 0.208556 0.239244 0.245195 0.289067 0.24277 0.284424 0.242784 0.284401 0.239244 0.279897 0.289067 0.357147 0.284424 0.344791 0.284401 0.344998 0.279897 0.337013 0.18587 0.210295 0.182188 0.205037 0.184603 0.208556 0.181029 0.203341 0.210295 0.24277 0.205037 0.234001 0.208556 0.239244 0.203341 0.231559 0.24277 0.284424 0.234001 0.272385 0.239244 0.279897 0.231559 0.267883 0.284424 0.344791 0.272385 0.323182 0.279897 0.337013 0.267883 0.316513 0.344791 0.438214 0.323182 0.395514 0.337013 0.419586 0.316513 0.383577 0.438214 0.596095 0.395514 0.501526 0.419586 0.555267 0.383577 0.475585 0.182188 0.205037 0.176544 0.197036 0.181029 0.203341 0.175481 0.195566 0.205037 0.234001 0.197036 0.222393 0.203341 0.231559 0.195566 0.220273 0.234001 0.272385 0.222393 0.254276 0.231559 0.267883 0.220273 0.251008 0.272385 0.323182 0.254276 0.294223 0.267883 0.316513 0.251008 0.289543 0.323182 0.395514 0.294223 0.34625 0.316513 0.383577 0.289543 0.337668 0.395514 0.501526 0.34625 0.410215 0.383577 0.475585 0.337668 0.396539 0.641399 0.784369 0.472897 0.523078 0.595121 0.695462 0.456209 0.49235 0.784369 0.783493 0.523078 0.523311 0.695462 0.695961 0.49235 0.492776 0.783493 0.652655 0.523311 0.474329 0.695961 0.598957 0.492776 0.455265 0.176544 0.197036 0.169419 0.187284 0.175481 0.195566 0.168483 0.186019 0.197036 0.222393 0.187284 0.208709 0.195566 0.220273 0.186019 0.206957 0.222393 0.254276 0.208709 0.2343 0.220273 0.251008 0.206957 0.231858 0.254276 0.294223 0.2343 0.264796 0.251008 0.289543 0.231858 0.26122 0.294223 0.34625 0.264796 0.299761 0.289543 0.337668 0.26122 0.294802 0.34625 0.410215 0.299761 0.337757 0.337668 0.396539 0.294802 0.330574 0.410215 0.472897 0.337757 0.372062 0.396539 0.456209 0.330574 0.362534 0.472897 0.523078 0.372062 0.394176 0.456209 0.49235 0.362534 0.382394 0.523078 0.523311 0.394176 0.394018 0.49235 0.492776 0.382394 0.382224 0.523311 0.474329 0.394018 0.371219 0.492776 0.455265 0.382224 0.361559 0.169419 0.187284 0.161123 0.176657 0.168483 0.186019 0.160319 0.175594 0.187284 0.208709 0.176657 0.194309 0.186019 0.206957 0.175594 0.192901 0.208709 0.2343 0.194309 0.2145 0.206957 0.231858 0.192901 0.212603 0.2343 0.264796 0.2145 0.237054 0.231858 0.26122 0.212603 0.234527 0.264796 0.299761 0.237054 0.261189 0.26122 0.294802 0.234527 0.257778 0.299761 0.337757 0.261189 0.284401 0.294802 0.330574 0.257778 0.279998 0.337757 0.372062 0.284401 0.304954 0.330574 0.362534 0.279998 0.299475 0.372062 0.394176 0.304954 0.316753 0.362534 0.382394 0.299475 0.310624 0.394176 0.394018 0.316753 0.316387 0.382394 0.382224 0.310624 0.310268 0.394018 0.371219 0.316387 0.302471 0.382224 0.361559 0.310268 0.297197 0.160319 0.175594 0.168483 0.186019 0.157977 0.172515 0.165762 0.18237 0.175594 0.192901 0.186019 0.206958 0.172515 0.188841 0.18237 0.201963 0.192901 0.212603 0.206958 0.231858 0.188841 0.207209 0.201963 0.224911 0.212603 0.234527 0.231858 0.26122 0.207209 0.22735 0.224911 0.251414 0.234527 0.257778 0.26122 0.294802 0.22735 0.248332 0.251414 0.280827 0.257778 0.279998 0.294802 0.330574 0.248332 0.268362 0.280827 0.310778 0.279998 0.299474 0.330574 0.362534 0.268362 0.28378 0.310778 0.337403 0.299474 0.310623 0.362534 0.382393 0.28378 0.29427 0.337403 0.35363 0.310623 0.310267 0.382393 0.382223 0.29427 0.29404 0.35363 0.353491 0.310267 0.297196 0.382223 0.361558 0.29404 0.283016 0.353491 0.336963 0.168483 0.186019 0.175481 0.195566 0.165762 0.18237 0.17241 0.191336 0.186019 0.206958 0.195566 0.220273 0.18237 0.201963 0.191336 0.214271 0.206958 0.231858 0.220273 0.251008 0.201963 0.224911 0.214271 0.242212 0.231858 0.26122 0.251008 0.289543 0.224911 0.251414 0.242212 0.27638 0.26122 0.294802 0.289543 0.337668 0.251414 0.280827 0.27638 0.317332 0.294802 0.330574 0.337668 0.396539 0.280827 0.310778 0.317332 0.363567 0.330574 0.362534 0.396539 0.456208 0.310778 0.337403 0.363567 0.41093 0.362534 0.382393 0.456208 0.492349 0.337403 0.35363 0.41093 0.439121 0.382393 0.382223 0.492349 0.492774 0.35363 0.353491 0.439121 0.439062 0.382223 0.361558 0.492774 0.455264 0.353491 0.336963 0.439062 0.412857 0.175481 0.195566 0.181029 0.203342 0.17241 0.191336 0.177654 0.19858 0.195566 0.220273 0.203342 0.231559 0.191336 0.214271 0.19858 0.224586 0.220273 0.251008 0.231559 0.267883 0.214271 0.242212 0.224586 0.257423 0.251008 0.289543 0.267883 0.316513 0.242212 0.27638 0.257423 0.298744 0.289543 0.337668 0.316513 0.383577 0.27638 0.317332 0.298744 0.35488 0.492349 0.492774 0.695459 0.695958 0.439121 0.439062 0.551514 0.552125 0.181029 0.203342 0.184603 0.208556 0.177654 0.19858 0.181034 0.203359 0.203342 0.231559 0.208556 0.239244 0.19858 0.224586 0.203359 0.231524 0.231559 0.267883 0.239244 0.279897 0.224586 0.257423 0.231524 0.268606 0.267883 0.316513 0.279897 0.337013 0.257423 0.298744 0.268606 0.316615 0.316513 0.383577 0.337013 0.419587 0.298744 0.35488 0.316615 0.383623 0.184603 0.208556 0.18587 0.2103 0.181034 0.203359 0.182197 0.205045 0.208556 0.239244 0.2103 0.242784 0.203359 0.231524 0.205045 0.234094 0.239244 0.279897 0.242784 0.284401 0.231524 0.268606 0.234094 0.272083 0.279897 0.337013 0.284401 0.344998 0.268606 0.316615 0.272083 0.323149 0.337013 0.419587 0.344998 0.437671 0.316615 0.383623 0.323149 0.395489 0.419587 0.555269 0.437671 0.596089 0.383623 0.475599 0.395489 0.50156 0.18587 0.2103 0.184603 0.208556 0.182197 0.205045 0.181034 0.203359 0.2103 0.242784 0.208556 0.239244 0.205045 0.234094 0.203359 0.231524 0.242784 0.284401 0.239244 0.279897 0.234094 0.272083 0.231524 0.268606 0.284401 0.344998 0.279897 0.337013 0.272083 0.323149 0.268606 0.316614 0.344998 0.437671 0.337013 0.419586 0.323149 0.395489 0.316614 0.383623 0.437671 0.596089 0.419586 0.555267 0.395489 0.50156 0.383623 0.475599 0.184603 0.208556 0.181029 0.203341 0.181034 0.203359 0.177654 0.19858 0.208556 0.239244 0.203341 0.231559 0.203359 0.231524 0.19858 0.224586 0.239244 0.279897 0.231559 0.267883 0.231524 0.268606 0.224586 0.257423 0.279897 0.337013 0.267883 0.316513 0.268606 0.316614 0.257423 0.298744 0.337013 0.419586 0.316513 0.383577 0.316614 0.383623 0.298744 0.35488 0.181029 0.203341 0.175481 0.195566 0.177654 0.19858 0.17241 0.191336 0.203341 0.231559 0.195566 0.220273 0.19858 0.224586 0.191336 0.214271 0.231559 0.267883 0.220273 0.251008 0.224586 0.257423 0.214271 0.242212 0.267883 0.316513 0.251008 0.289543 0.257423 0.298744 0.242212 0.27638 0.316513 0.383577 0.289543 0.337668 0.298744 0.35488 0.27638 0.317332 0.695462 0.695961 0.49235 0.492776 0.551512 0.552124 0.439121 0.439062 0.175481 0.195566 0.168483 0.186019 0.17241 0.191336 0.165761 0.18237 0.195566 0.220273 0.186019 0.206957 0.191336 0.214271 0.18237 0.201963 0.220273 0.251008 0.206957 0.231858 0.214271 0.242212 0.201963 0.224911 0.251008 0.289543 0.231858 0.26122 0.242212 0.27638 0.224911 0.251414 0.289543 0.337668 0.26122 0.294802 0.27638 0.317332 0.251414 0.280827 0.337668 0.396539 0.294802 0.330574 0.317332 0.363567 0.280827 0.310778 0.396539 0.456209 0.330574 0.362534 0.363567 0.41093 0.310778 0.337403 0.456209 0.49235 0.362534 0.382394 0.41093 0.439121 0.337403 0.35363 0.49235 0.492776 0.382394 0.382224 0.439121 0.439062 0.35363 0.353492 0.492776 0.455265 0.382224 0.361559 0.439062 0.412858 0.353492 0.336963 0.168483 0.186019 0.160319 0.175594 0.165761 0.18237 0.157977 0.172515 0.186019 0.206957 0.175594 0.192901 0.18237 0.201963 0.172515 0.188841 0.206957 0.231858 0.192901 0.212603 0.201963 0.224911 0.188841 0.207209 0.231858 0.26122 0.212603 0.234527 0.224911 0.251414 0.207209 0.22735 0.26122 0.294802 0.234527 0.257778 0.251414 0.280827 0.22735 0.248332 0.294802 0.330574 0.257778 0.279998 0.280827 0.310778 0.248332 0.268362 0.330574 0.362534 0.279998 0.299475 0.310778 0.337403 0.268362 0.28378 0.362534 0.382394 0.299475 0.310624 0.337403 0.35363 0.28378 0.29427 0.382394 0.382224 0.310624 0.310268 0.35363 0.353492 0.29427 0.29404 0.382224 0.361559 0.310268 0.297197 0.353492 0.336963 0.29404 0.283016 0.157977 0.172515 0.165762 0.18237 0.154284 0.167716 0.161497 0.176727 0.172515 0.188841 0.18237 0.201963 0.167716 0.182593 0.176727 0.194376 0.188841 0.207209 0.201963 0.224911 0.182593 0.199037 0.194376 0.214572 0.207209 0.22735 0.224911 0.251414 0.199037 0.216689 0.214572 0.23721 0.22735 0.248332 0.251414 0.280827 0.216689 0.234649 0.23721 0.261475 0.248332 0.268362 0.280827 0.310778 0.234649 0.251301 0.261475 0.285294 0.268362 0.28378 0.310778 0.337403 0.251301 0.264581 0.285294 0.305188 0.28378 0.29427 0.337403 0.35363 0.264581 0.271867 0.305188 0.31697 0.29427 0.29404 0.35363 0.353491 0.271867 0.27168 0.31697 0.316862 0.29404 0.283016 0.353491 0.336963 0.27168 0.263547 0.316862 0.304868 0.165762 0.18237 0.17241 0.191336 0.161497 0.176727 0.167628 0.184849 0.18237 0.201963 0.191336 0.214271 0.176727 0.194376 0.184849 0.205277 0.201963 0.224911 0.214271 0.242212 0.194376 0.214572 0.205277 0.229472 0.224911 0.251414 0.242212 0.27638 0.214572 0.23721 0.229472 0.257886 0.251414 0.280827 0.27638 0.317332 0.23721 0.261475 0.257886 0.29017 0.280827 0.310778 0.317332 0.363567 0.261475 0.285294 0.29017 0.323986 0.310778 0.337403 0.363567 0.41093 0.285294 0.305188 0.323986 0.354359 0.337403 0.35363 0.41093 0.439121 0.305188 0.31697 0.354359 0.372412 0.35363 0.353491 0.439121 0.439062 0.31697 0.316862 0.372412 0.372542 0.353491 0.336963 0.439062 0.412857 0.316862 0.304868 0.372542 0.355107 0.17241 0.191336 0.177654 0.19858 0.167628 0.184849 0.17243 0.191352 0.191336 0.214271 0.19858 0.224586 0.184849 0.205277 0.191352 0.214291 0.214271 0.242212 0.224586 0.257423 0.205277 0.229472 0.214291 0.242212 0.242212 0.27638 0.257423 0.298744 0.229472 0.257886 0.242212 0.276246 0.27638 0.317332 0.298744 0.35488 0.257886 0.29017 0.276246 0.317363 0.317332 0.363567 0.35488 0.422003 0.29017 0.323986 0.317363 0.363506 0.439121 0.439062 0.551514 0.552125 0.372412 0.372542 0.439076 0.439028 0.177654 0.19858 0.181034 0.203359 0.17243 0.191352 0.175508 0.195591 0.19858 0.224586 0.203359 0.231524 0.191352 0.214291 0.195591 0.220313 0.224586 0.257423 0.231524 0.268606 0.214291 0.242212 0.220313 0.251011 0.257423 0.298744 0.268606 0.316615 0.242212 0.276246 0.251011 0.289325 0.298744 0.35488 0.316615 0.383623 0.276246 0.317363 0.289325 0.337722 0.551514 0.552125 0.695545 0.695998 0.439076 0.439028 0.492312 0.49273 0.181034 0.203359 0.182197 0.205045 0.175508 0.195591 0.176571 0.197069 0.203359 0.231524 0.205045 0.234094 0.195591 0.220313 0.197069 0.22242 0.231524 0.268606 0.234094 0.272083 0.220313 0.251011 0.22242 0.254189 0.268606 0.316615 0.272083 0.323149 0.251011 0.289325 0.254189 0.294137 0.316615 0.383623 0.323149 0.395489 0.289325 0.337722 0.294137 0.346269 0.383623 0.475599 0.395489 0.50156 0.337722 0.396499 0.346269 0.410263 0.595158 0.695545 0.641475 0.784585 0.456167 0.492312 0.472872 0.523062 0.695545 0.695998 0.784585 0.783635 0.492312 0.49273 0.523062 0.523268 0.695998 0.598759 0.783635 0.652279 0.49273 0.455116 0.523268 0.474117 0.182197 0.205045 0.181034 0.203359 0.176571 0.197069 0.175508 0.195591 0.205045 0.234094 0.203359 0.231524 0.197069 0.22242 0.195591 0.220313 0.234094 0.272083 0.231524 0.268606 0.22242 0.254189 0.220313 0.251011 0.272083 0.323149 0.268606 0.316614 0.254189 0.294137 0.251011 0.289325 0.323149 0.395489 0.316614 0.383623 0.294137 0.346269 0.289325 0.337722 0.395489 0.50156 0.383623 0.475599 0.346269 0.410263 0.337722 0.396499 0.641475 0.784585 0.595156 0.695541 0.472872 0.523062 0.456167 0.492312 0.784585 0.783635 0.695541 0.695993 0.523062 0.523268 0.492312 0.49273 0.783635 0.652279 0.695993 0.598755 0.523268 0.474117 0.49273 0.455115 0.181034 0.203359 0.177654 0.19858 0.175508 0.195591 0.17243 0.191352 0.203359 0.231524 0.19858 0.224586 0.195591 0.220313 0.191352 0.214291 0.231524 0.268606 0.224586 0.257423 0.220313 0.251011 0.214291 0.242212 0.268606 0.316614 0.257423 0.298744 0.251011 0.289325 0.242212 0.276246 0.316614 0.383623 0.298744 0.35488 0.289325 0.337722 0.276246 0.317363 0.695541 0.695993 0.551512 0.552124 0.492312 0.49273 0.439075 0.439027 0.177654 0.19858 0.17241 0.191336 0.17243 0.191352 0.167628 0.184849 0.19858 0.224586 0.191336 0.214271 0.191352 0.214291 0.184849 0.205277 0.224586 0.257423 0.214271 0.242212 0.214291 0.242212 0.205277 0.229472 0.257423 0.298744 0.242212 0.27638 0.242212 0.276246 0.229472 0.257886 0.298744 0.35488 0.27638 0.317332 0.276246 0.317363 0.257886 0.29017 0.35488 0.422002 0.317332 0.363567 0.317363 0.363506 0.29017 0.323985 0.551512 0.552124 0.439121 0.439062 0.439075 0.439027 0.372412 0.372541 0.17241 0.191336 0.165761 0.18237 0.167628 0.184849 0.161497 0.176727 0.191336 0.214271 0.18237 0.201963 0.184849 0.205277 0.176727 0.194376 0.214271 0.242212 0.201963 0.224911 0.205277 0.229472 0.194376 0.214571 0.242212 0.27638 0.224911 0.251414 0.229472 0.257886 0.214571 0.23721 0.27638 0.317332 0.251414 0.280827 0.257886 0.29017 0.23721 0.261474 0.317332 0.363567 0.280827 0.310778 0.29017 0.323985 0.261474 0.285294 0.363567 0.41093 0.310778 0.337403 0.323985 0.354359 0.285294 0.305188 0.41093 0.439121 0.337403 0.35363 0.354359 0.372412 0.305188 0.31697 0.439121 0.439062 0.35363 0.353492 0.372412 0.372541 0.31697 0.316862 0.439062 0.412858 0.353492 0.336963 0.372541 0.355107 0.316862 0.304868 0.165761 0.18237 0.157977 0.172515 0.161497 0.176727 0.154284 0.167715 0.18237 0.201963 0.172515 0.188841 0.176727 0.194376 0.167715 0.182593 0.201963 0.224911 0.188841 0.207209 0.194376 0.214571 0.182593 0.199037 0.224911 0.251414 0.207209 0.22735 0.214571 0.23721 0.199037 0.216689 0.251414 0.280827 0.22735 0.248332 0.23721 0.261474 0.216689 0.234649 0.280827 0.310778 0.248332 0.268362 0.261474 0.285294 0.234649 0.251301 0.310778 0.337403 0.268362 0.28378 0.285294 0.305188 0.251301 0.264581 0.337403 0.35363 0.28378 0.29427 0.305188 0.31697 0.264581 0.271867 0.35363 0.353492 0.29427 0.29404 0.31697 0.316862 0.271867 0.271681 0.353492 0.336963 0.29404 0.283016 0.316862 0.304868 0.271681 0.263547 0.154284 0.167716 0.161497 0.176727 0.149506 0.161605 0.156028 0.169621 0.167716 0.182593 0.176727 0.194376 0.161605 0.174777 0.169621 0.185031 0.182593 0.199037 0.194376 0.214572 0.174777 0.189026 0.185031 0.202183 0.199037 0.216689 0.214572 0.23721 0.189026 0.203943 0.202183 0.22077 0.216689 0.234649 0.23721 0.261475 0.203943 0.218722 0.22077 0.239909 0.234649 0.251301 0.261475 0.285294 0.218722 0.232091 0.239909 0.257941 0.251301 0.264581 0.285294 0.305188 0.232091 0.242413 0.257941 0.272404 0.264581 0.271867 0.305188 0.31697 0.242413 0.24807 0.272404 0.280591 0.271867 0.27168 0.31697 0.316862 0.24807 0.247959 0.280591 0.280487 0.27168 0.263547 0.316862 0.304868 0.247959 0.241757 0.280487 0.272237 0.161497 0.176727 0.167628 0.184849 0.156028 0.169621 0.161539 0.176766 0.176727 0.194376 0.184849 0.205277 0.169621 0.185031 0.176766 0.194368 0.194376 0.214572 0.205277 0.229472 0.185031 0.202183 0.194368 0.214533 0.214572 0.23721 0.229472 0.257886 0.202183 0.22077 0.214533 0.237146 0.23721 0.261475 0.257886 0.29017 0.22077 0.239909 0.237146 0.261408 0.261475 0.285294 0.29017 0.323986 0.239909 0.257941 0.261408 0.285225 0.285294 0.305188 0.323986 0.354359 0.257941 0.272404 0.285225 0.305079 0.305188 0.31697 0.354359 0.372412 0.272404 0.280591 0.305079 0.316836 0.31697 0.316862 0.372412 0.372542 0.280591 0.280487 0.316836 0.316819 0.316862 0.304868 0.372542 0.355107 0.280487 0.272237 0.316819 0.304787 0.167628 0.184849 0.17243 0.191352 0.161539 0.176766 0.165826 0.18243 0.184849 0.205277 0.191352 0.214291 0.176766 0.194368 0.18243 0.201958 0.205277 0.229472 0.214291 0.242212 0.194368 0.214533 0.201958 0.224848 0.229472 0.257886 0.242212 0.276246 0.214533 0.237146 0.224848 0.251315 0.257886 0.29017 0.276246 0.317363 0.237146 0.261408 0.251315 0.28068 0.29017 0.323986 0.317363 0.363506 0.261408 0.285225 0.28068 0.310729 0.323986 0.354359 0.363506 0.410865 0.285225 0.305079 0.310729 0.337069 0.354359 0.372412 0.410865 0.439076 0.305079 0.316836 0.337069 0.353483 0.372412 0.372542 0.439076 0.439028 0.316836 0.316819 0.353483 0.353441 0.372542 0.355107 0.439028 0.412807 0.316819 0.304787 0.353441 0.337034 0.17243 0.191352 0.175508 0.195591 0.165826 0.18243 0.168558 0.186091 0.191352 0.214291 0.195591 0.220313 0.18243 0.201958 0.186091 0.206954 0.214291 0.242212 0.220313 0.251011 0.201958 0.224848 0.206954 0.23178 0.242212 0.276246 0.251011 0.289325 0.224848 0.251315 0.23178 0.261114 0.276246 0.317363 0.289325 0.337722 0.251315 0.28068 0.261114 0.294569 0.317363 0.363506 0.337722 0.396499 0.28068 0.310729 0.294569 0.329748 0.363506 0.410865 0.396499 0.456167 0.310729 0.337069 0.329748 0.362285 0.410865 0.439076 0.456167 0.492312 0.337069 0.353483 0.362285 0.382242 0.439076 0.439028 0.492312 0.49273 0.353483 0.353441 0.382242 0.382189 0.439028 0.412807 0.49273 0.455116 0.353441 0.337034 0.382189 0.361631 0.175508 0.195591 0.176571 0.197069 0.168558 0.186091 0.169497 0.18736 0.195591 0.220313 0.197069 0.22242 0.186091 0.206954 0.18736 0.208704 0.220313 0.251011 0.22242 0.254189 0.206954 0.23178 0.208704 0.234231 0.251011 0.289325 0.254189 0.294137 0.23178 0.261114 0.234231 0.264661 0.289325 0.337722 0.294137 0.346269 0.26111