<?xml version="1.0" ?> 
<!-- 
# vtk DataFile Version 3.0
#This file was generated by the deal.II library on 16:47:12 at 2019/11/27
-->
<VTKFile type="UnstructuredGrid" version="0.1" byte_order="LittleEndian">
<UnstructuredGrid>
<Piece NumberOfPoints="73688" NumberOfCells="9211" >
  <Points>
    <DataArray type="Float32" NumberOfComponents="3" format="ascii">
-50 -50 0
-40 -50 0
-50 -40 0
-40 -40 0
-50 -50 10
-40 -50 10
-50 -40 10
-40 -40 10
-40 -50 0
-30 -50 0
-40 -40 0
-30 -40 0
-40 -50 10
-30 -50 10
-40 -40 10
-30 -40 10
-30 -50 0
-20 -50 0
-30 -40 0
-20 -40 0
-30 -50 10
-20 -50 10
-30 -40 10
-20 -40 10
-20 -50 0
-10 -50 0
-20 -40 0
-10 -40 0
-20 -50 10
-10 -50 10
-20 -40 10
-10 -40 10
-10 -50 0
0 -50 0
-10 -40 0
0 -40 0
-10 -50 10
0 -50 10
-10 -40 10
0 -40 10
0 -50 0
10 -50 0
0 -40 0
10 -40 0
0 -50 10
10 -50 10
0 -40 10
10 -40 10
10 -50 0
20 -50 0
10 -40 0
20 -40 0
10 -50 10
20 -50 10
10 -40 10
20 -40 10
20 -50 0
30 -50 0
20 -40 0
30 -40 0
20 -50 10
30 -50 10
20 -40 10
30 -40 10
30 -50 0
40 -50 0
30 -40 0
40 -40 0
30 -50 10
40 -50 10
30 -40 10
40 -40 10
40 -50 0
50 -50 0
40 -40 0
50 -40 0
40 -50 10
50 -50 10
40 -40 10
50 -40 10
-50 -40 0
-40 -40 0
-50 -30 0
-40 -30 0
-50 -40 10
-40 -40 10
-50 -30 10
-40 -30 10
-40 -40 0
-30 -40 0
-40 -30 0
-30 -30 0
-40 -40 10
-30 -40 10
-40 -30 10
-30 -30 10
-20 -40 0
-10 -40 0
-20 -30 0
-10 -30 0
-20 -40 10
-10 -40 10
-20 -30 10
-10 -30 10
-10 -40 0
0 -40 0
-10 -30 0
0 -30 0
-10 -40 10
0 -40 10
-10 -30 10
0 -30 10
0 -40 0
10 -40 0
0 -30 0
10 -30 0
0 -40 10
10 -40 10
0 -30 10
10 -30 10
10 -40 0
20 -40 0
10 -30 0
20 -30 0
10 -40 10
20 -40 10
10 -30 10
20 -30 10
20 -40 0
30 -40 0
20 -30 0
30 -30 0
20 -40 10
30 -40 10
20 -30 10
30 -30 10
30 -40 0
40 -40 0
30 -30 0
40 -30 0
30 -40 10
40 -40 10
30 -30 10
40 -30 10
40 -40 0
50 -40 0
40 -30 0
50 -30 0
40 -40 10
50 -40 10
40 -30 10
50 -30 10
-10 -30 0
0 -30 0
-10 -20 0
0 -20 0
-10 -30 10
0 -30 10
-10 -20 10
0 -20 10
0 -30 0
10 -30 0
0 -20 0
10 -20 0
0 -30 10
10 -30 10
0 -20 10
10 -20 10
10 -30 0
20 -30 0
10 -20 0
20 -20 0
10 -30 10
20 -30 10
10 -20 10
20 -20 10
20 -30 0
30 -30 0
20 -20 0
30 -20 0
20 -30 10
30 -30 10
20 -20 10
30 -20 10
30 -30 0
40 -30 0
30 -20 0
40 -20 0
30 -30 10
40 -30 10
30 -20 10
40 -20 10
40 -30 0
50 -30 0
40 -20 0
50 -20 0
40 -30 10
50 -30 10
40 -20 10
50 -20 10
0 -20 0
10 -20 0
0 -10 0
10 -10 0
0 -20 10
10 -20 10
0 -10 10
10 -10 10
10 -20 0
20 -20 0
10 -10 0
20 -10 0
10 -20 10
20 -20 10
10 -10 10
20 -10 10
20 -20 0
30 -20 0
20 -10 0
30 -10 0
20 -20 10
30 -20 10
20 -10 10
30 -10 10
30 -20 0
40 -20 0
30 -10 0
40 -10 0
30 -20 10
40 -20 10
30 -10 10
40 -10 10
40 -20 0
50 -20 0
40 -10 0
50 -10 0
40 -20 10
50 -20 10
40 -10 10
50 -10 10
10 -10 0
20 -10 0
10 0 0
20 0 0
10 -10 10
20 -10 10
10 0 10
20 0 10
20 -10 0
30 -10 0
20 0 0
30 0 0
20 -10 10
30 -10 10
20 0 10
30 0 10
30 -10 0
40 -10 0
30 0 0
40 0 0
30 -10 10
40 -10 10
30 0 10
40 0 10
40 -10 0
50 -10 0
40 0 0
50 0 0
40 -10 10
50 -10 10
40 0 10
50 0 10
10 0 0
20 0 0
10 10 0
20 10 0
10 0 10
20 0 10
10 10 10
20 10 10
20 0 0
30 0 0
20 10 0
30 10 0
20 0 10
30 0 10
20 10 10
30 10 10
30 0 0
40 0 0
30 10 0
40 10 0
30 0 10
40 0 10
30 10 10
40 10 10
40 0 0
50 0 0
40 10 0
50 10 0
40 0 10
50 0 10
40 10 10
50 10 10
0 10 0
10 10 0
0 20 0
10 20 0
0 10 10
10 10 10
0 20 10
10 20 10
10 10 0
20 10 0
10 20 0
20 20 0
10 10 10
20 10 10
10 20 10
20 20 10
20 10 0
30 10 0
20 20 0
30 20 0
20 10 10
30 10 10
20 20 10
30 20 10
30 10 0
40 10 0
30 20 0
40 20 0
30 10 10
40 10 10
30 20 10
40 20 10
40 10 0
50 10 0
40 20 0
50 20 0
40 10 10
50 10 10
40 20 10
50 20 10
-10 20 0
0 20 0
-10 30 0
0 30 0
-10 20 10
0 20 10
-10 30 10
0 30 10
0 20 0
10 20 0
0 30 0
10 30 0
0 20 10
10 20 10
0 30 10
10 30 10
10 20 0
20 20 0
10 30 0
20 30 0
10 20 10
20 20 10
10 30 10
20 30 10
20 20 0
30 20 0
20 30 0
30 30 0
20 20 10
30 20 10
20 30 10
30 30 10
30 20 0
40 20 0
30 30 0
40 30 0
30 20 10
40 20 10
30 30 10
40 30 10
40 20 0
50 20 0
40 30 0
50 30 0
40 20 10
50 20 10
40 30 10
50 30 10
-50 30 0
-40 30 0
-50 40 0
-40 40 0
-50 30 10
-40 30 10
-50 40 10
-40 40 10
-20 30 0
-10 30 0
-20 40 0
-10 40 0
-20 30 10
-10 30 10
-20 40 10
-10 40 10
-10 30 0
0 30 0
-10 40 0
0 40 0
-10 30 10
0 30 10
-10 40 10
0 40 10
0 30 0
10 30 0
0 40 0
10 40 0
0 30 10
10 30 10
0 40 10
10 40 10
10 30 0
20 30 0
10 40 0
20 40 0
10 30 10
20 30 10
10 40 10
20 40 10
20 30 0
30 30 0
20 40 0
30 40 0
20 30 10
30 30 10
20 40 10
30 40 10
30 30 0
40 30 0
30 40 0
40 40 0
30 30 10
40 30 10
30 40 10
40 40 10
40 30 0
50 30 0
40 40 0
50 40 0
40 30 10
50 30 10
40 40 10
50 40 10
-50 40 0
-40 40 0
-50 50 0
-40 50 0
-50 40 10
-40 40 10
-50 50 10
-40 50 10
-40 40 0
-30 40 0
-40 50 0
-30 50 0
-40 40 10
-30 40 10
-40 50 10
-30 50 10
-30 40 0
-20 40 0
-30 50 0
-20 50 0
-30 40 10
-20 40 10
-30 50 10
-20 50 10
-20 40 0
-10 40 0
-20 50 0
-10 50 0
-20 40 10
-10 40 10
-20 50 10
-10 50 10
-10 40 0
0 40 0
-10 50 0
0 50 0
-10 40 10
0 40 10
-10 50 10
0 50 10
0 40 0
10 40 0
0 50 0
10 50 0
0 40 10
10 40 10
0 50 10
10 50 10
10 40 0
20 40 0
10 50 0
20 50 0
10 40 10
20 40 10
10 50 10
20 50 10
20 40 0
30 40 0
20 50 0
30 50 0
20 40 10
30 40 10
20 50 10
30 50 10
30 40 0
40 40 0
30 50 0
40 50 0
30 40 10
40 40 10
30 50 10
40 50 10
40 40 0
50 40 0
40 50 0
50 50 0
40 40 10
50 40 10
40 50 10
50 50 10
-50 -50 10
-40 -50 10
-50 -40 10
-40 -40 10
-50 -50 20
-40 -50 20
-50 -40 20
-40 -40 20
-40 -50 10
-30 -50 10
-40 -40 10
-30 -40 10
-40 -50 20
-30 -50 20
-40 -40 20
-30 -40 20
-30 -50 10
-20 -50 10
-30 -40 10
-20 -40 10
-30 -50 20
-20 -50 20
-30 -40 20
-20 -40 20
-20 -50 10
-10 -50 10
-20 -40 10
-10 -40 10
-20 -50 20
-10 -50 20
-20 -40 20
-10 -40 20
-10 -50 10
0 -50 10
-10 -40 10
0 -40 10
-10 -50 20
0 -50 20
-10 -40 20
0 -40 20
0 -50 10
10 -50 10
0 -40 10
10 -40 10
0 -50 20
10 -50 20
0 -40 20
10 -40 20
10 -50 10
20 -50 10
10 -40 10
20 -40 10
10 -50 20
20 -50 20
10 -40 20
20 -40 20
20 -50 10
30 -50 10
20 -40 10
30 -40 10
20 -50 20
30 -50 20
20 -40 20
30 -40 20
30 -50 10
40 -50 10
30 -40 10
40 -40 10
30 -50 20
40 -50 20
30 -40 20
40 -40 20
40 -50 10
50 -50 10
40 -40 10
50 -40 10
40 -50 20
50 -50 20
40 -40 20
50 -40 20
-30 -40 10
-20 -40 10
-30 -30 10
-20 -30 10
-30 -40 20
-20 -40 20
-30 -30 20
-20 -30 20
-20 -40 10
-10 -40 10
-20 -30 10
-10 -30 10
-20 -40 20
-10 -40 20
-20 -30 20
-10 -30 20
-10 -40 10
0 -40 10
-10 -30 10
0 -30 10
-10 -40 20
0 -40 20
-10 -30 20
0 -30 20
0 -40 10
10 -40 10
0 -30 10
10 -30 10
0 -40 20
10 -40 20
0 -30 20
10 -30 20
10 -40 10
20 -40 10
10 -30 10
20 -30 10
10 -40 20
20 -40 20
10 -30 20
20 -30 20
20 -40 10
30 -40 10
20 -30 10
30 -30 10
20 -40 20
30 -40 20
20 -30 20
30 -30 20
30 -40 10
40 -40 10
30 -30 10
40 -30 10
30 -40 20
40 -40 20
30 -30 20
40 -30 20
40 -40 10
50 -40 10
40 -30 10
50 -30 10
40 -40 20
50 -40 20
40 -30 20
50 -30 20
-10 -30 10
0 -30 10
-10 -20 10
0 -20 10
-10 -30 20
0 -30 20
-10 -20 20
0 -20 20
0 -30 10
10 -30 10
0 -20 10
10 -20 10
0 -30 20
10 -30 20
0 -20 20
10 -20 20
10 -30 10
20 -30 10
10 -20 10
20 -20 10
10 -30 20
20 -30 20
10 -20 20
20 -20 20
20 -30 10
30 -30 10
20 -20 10
30 -20 10
20 -30 20
30 -30 20
20 -20 20
30 -20 20
30 -30 10
40 -30 10
30 -20 10
40 -20 10
30 -30 20
40 -30 20
30 -20 20
40 -20 20
40 -30 10
50 -30 10
40 -20 10
50 -20 10
40 -30 20
50 -30 20
40 -20 20
50 -20 20
-10 -20 10
0 -20 10
-10 -10 10
0 -10 10
-10 -20 20
0 -20 20
-10 -10 20
0 -10 20
0 -20 10
10 -20 10
0 -10 10
10 -10 10
0 -20 20
10 -20 20
0 -10 20
10 -10 20
10 -20 10
20 -20 10
10 -10 10
20 -10 10
10 -20 20
20 -20 20
10 -10 20
20 -10 20
20 -20 10
30 -20 10
20 -10 10
30 -10 10
20 -20 20
30 -20 20
20 -10 20
30 -10 20
30 -20 10
40 -20 10
30 -10 10
40 -10 10
30 -20 20
40 -20 20
30 -10 20
40 -10 20
40 -20 10
50 -20 10
40 -10 10
50 -10 10
40 -20 20
50 -20 20
40 -10 20
50 -10 20
0 -10 10
10 -10 10
0 0 10
10 0 10
0 -10 20
10 -10 20
0 0 20
10 0 20
10 -10 10
20 -10 10
10 0 10
20 0 10
10 -10 20
20 -10 20
10 0 20
20 0 20
20 -10 10
30 -10 10
20 0 10
30 0 10
20 -10 20
30 -10 20
20 0 20
30 0 20
30 -10 10
40 -10 10
30 0 10
40 0 10
30 -10 20
40 -10 20
30 0 20
40 0 20
40 -10 10
50 -10 10
40 0 10
50 0 10
40 -10 20
50 -10 20
40 0 20
50 0 20
0 0 10
10 0 10
0 10 10
10 10 10
0 0 20
10 0 20
0 10 20
10 10 20
10 0 10
20 0 10
10 10 10
20 10 10
10 0 20
20 0 20
10 10 20
20 10 20
20 0 10
30 0 10
20 10 10
30 10 10
20 0 20
30 0 20
20 10 20
30 10 20
30 0 10
40 0 10
30 10 10
40 10 10
30 0 20
40 0 20
30 10 20
40 10 20
40 0 10
50 0 10
40 10 10
50 10 10
40 0 20
50 0 20
40 10 20
50 10 20
-10 10 10
0 10 10
-10 20 10
0 20 10
-10 10 20
0 10 20
-10 20 20
0 20 20
0 10 10
10 10 10
0 20 10
10 20 10
0 10 20
10 10 20
0 20 20
10 20 20
10 10 10
20 10 10
10 20 10
20 20 10
10 10 20
20 10 20
10 20 20
20 20 20
20 10 10
30 10 10
20 20 10
30 20 10
20 10 20
30 10 20
20 20 20
30 20 20
30 10 10
40 10 10
30 20 10
40 20 10
30 10 20
40 10 20
30 20 20
40 20 20
40 10 10
50 10 10
40 20 10
50 20 10
40 10 20
50 10 20
40 20 20
50 20 20
-10 20 10
0 20 10
-10 30 10
0 30 10
-10 20 20
0 20 20
-10 30 20
0 30 20
0 20 10
10 20 10
0 30 10
10 30 10
0 20 20
10 20 20
0 30 20
10 30 20
10 20 10
20 20 10
10 30 10
20 30 10
10 20 20
20 20 20
10 30 20
20 30 20
20 20 10
30 20 10
20 30 10
30 30 10
20 20 20
30 20 20
20 30 20
30 30 20
30 20 10
40 20 10
30 30 10
40 30 10
30 20 20
40 20 20
30 30 20
40 30 20
40 20 10
50 20 10
40 30 10
50 30 10
40 20 20
50 20 20
40 30 20
50 30 20
-30 30 10
-20 30 10
-30 40 10
-20 40 10
-30 30 20
-20 30 20
-30 40 20
-20 40 20
-20 30 10
-10 30 10
-20 40 10
-10 40 10
-20 30 20
-10 30 20
-20 40 20
-10 40 20
-10 30 10
0 30 10
-10 40 10
0 40 10
-10 30 20
0 30 20
-10 40 20
0 40 20
0 30 10
10 30 10
0 40 10
10 40 10
0 30 20
10 30 20
0 40 20
10 40 20
10 30 10
20 30 10
10 40 10
20 40 10
10 30 20
20 30 20
10 40 20
20 40 20
20 30 10
30 30 10
20 40 10
30 40 10
20 30 20
30 30 20
20 40 20
30 40 20
30 30 10
40 30 10
30 40 10
40 40 10
30 30 20
40 30 20
30 40 20
40 40 20
40 30 10
50 30 10
40 40 10
50 40 10
40 30 20
50 30 20
40 40 20
50 40 20
-50 40 10
-40 40 10
-50 50 10
-40 50 10
-50 40 20
-40 40 20
-50 50 20
-40 50 20
-40 40 10
-30 40 10
-40 50 10
-30 50 10
-40 40 20
-30 40 20
-40 50 20
-30 50 20
-30 40 10
-20 40 10
-30 50 10
-20 50 10
-30 40 20
[...]
  <PointData Scalars="scalars">
    <DataArray type="Float32" Name="u" format="ascii">
0.310774 0.318449 0.385488 0.397661 0.304992 0.31218 0.374797 0.385789 0.318449 0.312368 0.397661 0.385841 0.31218 0.306449 0.385789 0.374989 0.312368 0.295638 0.385841 0.355841 0.306449 0.29058 0.374989 0.347158 0.295638 0.272614 0.355841 0.318794 0.29058 0.268908 0.347158 0.311791 0.272614 0.248713 0.318794 0.281406 0.268908 0.245713 0.311791 0.277161 0.248713 0.225216 0.281406 0.248613 0.245713 0.223028 0.277161 0.245642 0.225216 0.203855 0.248613 0.220679 0.223028 0.202218 0.245642 0.218616 0.203855 0.185003 0.220679 0.197349 0.202218 0.183779 0.218616 0.195859 0.185003 0.168603 0.197349 0.177802 0.183779 0.167673 0.195859 0.176713 0.168603 0.154197 0.177802 0.161439 0.167673 0.153488 0.176713 0.160623 0.385488 0.397661 0.50454 0.530647 0.374797 0.385789 0.480591 0.503216 0.397661 0.385841 0.530647 0.503133 0.385789 0.374989 0.503216 0.480932 0.355841 0.318794 0.443125 0.37652 0.347158 0.311791 0.427623 0.365063 0.318794 0.281406 0.37652 0.318737 0.311791 0.277161 0.365063 0.311747 0.281406 0.248613 0.318737 0.272518 0.277161 0.245642 0.311747 0.268723 0.248613 0.220679 0.272518 0.237188 0.245642 0.218616 0.268723 0.234579 0.220679 0.197349 0.237188 0.208881 0.218616 0.195859 0.234579 0.207125 0.197349 0.177802 0.208881 0.18613 0.195859 0.176713 0.207125 0.184877 0.177802 0.161439 0.18613 0.167601 0.176713 0.160623 0.184877 0.166686 0.37652 0.318737 0.442959 0.355828 0.365063 0.311747 0.427356 0.347156 0.318737 0.272518 0.355828 0.295338 0.311747 0.268723 0.347156 0.290302 0.272518 0.237188 0.295338 0.251604 0.268723 0.234579 0.290302 0.248873 0.237188 0.208881 0.251604 0.218528 0.234579 0.207125 0.248873 0.216429 0.208881 0.18613 0.218528 0.192865 0.207125 0.184877 0.216429 0.191455 0.18613 0.167601 0.192865 0.172444 0.184877 0.166686 0.191455 0.171449 0.355828 0.295338 0.385248 0.311965 0.347156 0.290302 0.375203 0.305675 0.295338 0.251604 0.311965 0.261293 0.290302 0.248873 0.305675 0.257666 0.251604 0.218528 0.261293 0.225583 0.248873 0.216429 0.257666 0.222774 0.218528 0.192865 0.225583 0.19726 0.216429 0.191455 0.222774 0.195803 0.192865 0.172444 0.19726 0.175576 0.191455 0.171449 0.195803 0.174502 0.311965 0.261293 0.320665 0.264896 0.305675 0.257666 0.311884 0.261289 0.261293 0.225583 0.264896 0.227533 0.257666 0.222774 0.261289 0.225584 0.225583 0.19726 0.227533 0.1989 0.222774 0.195803 0.225584 0.197261 0.19726 0.175576 0.1989 0.176634 0.195803 0.174502 0.197261 0.175577 0.320665 0.264896 0.311949 0.261289 0.311884 0.261289 0.305663 0.257663 0.264896 0.227533 0.261289 0.225582 0.261289 0.225584 0.257663 0.222773 0.227533 0.1989 0.225582 0.19726 0.225584 0.197261 0.222773 0.195803 0.1989 0.176634 0.19726 0.175576 0.197261 0.175577 0.195803 0.174502 0.385151 0.311949 0.355732 0.295328 0.375165 0.305663 0.347167 0.290295 0.311949 0.261289 0.295328 0.251603 0.305663 0.257663 0.290295 0.248869 0.261289 0.225582 0.251603 0.218527 0.257663 0.222773 0.248869 0.216428 0.225582 0.19726 0.218527 0.192865 0.222773 0.195803 0.216428 0.191454 0.19726 0.175576 0.192865 0.172444 0.195803 0.174502 0.191454 0.171448 0.443163 0.355732 0.376085 0.318422 0.42743 0.347167 0.366048 0.312315 0.355732 0.295328 0.318422 0.272578 0.347167 0.290295 0.312315 0.268666 0.295328 0.251603 0.272578 0.237182 0.290295 0.248869 0.268666 0.234587 0.251603 0.218527 0.237182 0.208882 0.248869 0.216428 0.234587 0.207123 0.218527 0.192865 0.208882 0.186129 0.216428 0.191454 0.207123 0.184877 0.192865 0.172444 0.186129 0.167601 0.191454 0.171448 0.184877 0.166686 0.504357 0.530489 0.385483 0.397724 0.48024 0.502977 0.374778 0.385806 0.443243 0.376085 0.355825 0.318484 0.427512 0.366048 0.347202 0.312373 0.376085 0.318422 0.318484 0.281364 0.366048 0.312315 0.312373 0.277119 0.318422 0.272578 0.281364 0.24862 0.312315 0.268666 0.277119 0.245671 0.272578 0.237182 0.24862 0.220685 0.268666 0.234587 0.245671 0.218615 0.237182 0.208882 0.220685 0.19735 0.234587 0.207123 0.218615 0.19586 0.208882 0.186129 0.19735 0.177802 0.207123 0.184877 0.19586 0.176712 0.186129 0.167601 0.177802 0.161438 0.184877 0.166686 0.176712 0.160622 0.385483 0.397724 0.310778 0.31845 0.374778 0.385806 0.304993 0.31218 0.397724 0.385754 0.31845 0.312351 0.385806 0.374927 0.31218 0.306439 0.385754 0.355825 0.312351 0.295656 0.374927 0.347202 0.306439 0.29059 0.355825 0.318484 0.295656 0.272748 0.347202 0.312373 0.29059 0.268807 0.318484 0.281364 0.272748 0.248725 0.312373 0.277119 0.268807 0.245767 0.281364 0.24862 0.248725 0.22522 0.277119 0.245671 0.245767 0.223022 0.24862 0.220685 0.22522 0.203858 0.245671 0.218615 0.223022 0.202223 0.220685 0.19735 0.203858 0.185005 0.218615 0.19586 0.202223 0.183779 0.19735 0.177802 0.185005 0.168603 0.19586 0.176712 0.183779 0.167673 0.177802 0.161438 0.168603 0.154197 0.176712 0.160622 0.167673 0.153488 0.304992 0.31218 0.374797 0.385789 0.289454 0.295429 0.347279 0.355745 0.31218 0.306449 0.385789 0.374989 0.295429 0.290516 0.355745 0.34716 0.306449 0.29058 0.374989 0.347158 0.290516 0.276363 0.34716 0.323608 0.29058 0.268908 0.347158 0.311791 0.276363 0.258117 0.323608 0.295602 0.268908 0.245713 0.311791 0.277161 0.258117 0.237467 0.295602 0.265439 0.245713 0.223028 0.277161 0.245642 0.237467 0.216797 0.265439 0.237389 0.223028 0.202218 0.245642 0.218616 0.216797 0.197537 0.237389 0.212739 0.202218 0.183779 0.218616 0.195859 0.197537 0.180242 0.212739 0.19159 0.183779 0.167673 0.195859 0.176713 0.180242 0.164973 0.19159 0.173558 0.167673 0.153488 0.176713 0.160623 0.164973 0.151417 0.173558 0.158247 0.374989 0.347158 0.480932 0.427623 0.34716 0.323608 0.427485 0.386303 0.347158 0.311791 0.427623 0.365063 0.323608 0.295602 0.386303 0.339538 0.311791 0.277161 0.365063 0.311747 0.295602 0.265439 0.339538 0.295557 0.277161 0.245642 0.311747 0.268723 0.265439 0.237389 0.295557 0.258044 0.245642 0.218616 0.268723 0.234579 0.237389 0.212739 0.258044 0.227296 0.218616 0.195859 0.234579 0.207125 0.212739 0.19159 0.227296 0.20207 0.195859 0.176713 0.207125 0.184877 0.19159 0.173558 0.20207 0.181272 0.176713 0.160623 0.184877 0.166686 0.173558 0.158247 0.181272 0.16403 0.365063 0.311747 0.427356 0.347156 0.339538 0.295557 0.386204 0.32354 0.311747 0.268723 0.347156 0.290302 0.295557 0.258044 0.32354 0.276139 0.268723 0.234579 0.290302 0.248873 0.258044 0.227296 0.276139 0.239841 0.234579 0.207125 0.248873 0.216429 0.227296 0.20207 0.239841 0.210725 0.207125 0.184877 0.216429 0.191455 0.20207 0.181272 0.210725 0.18743 0.184877 0.166686 0.191455 0.171449 0.181272 0.16403 0.18743 0.168556 0.427356 0.347156 0.480412 0.375203 0.386204 0.32354 0.427498 0.347055 0.347156 0.290302 0.375203 0.305675 0.32354 0.276139 0.347055 0.290284 0.290302 0.248873 0.305675 0.257666 0.276139 0.239841 0.290284 0.248871 0.248873 0.216429 0.257666 0.222774 0.239841 0.210725 0.248871 0.216433 0.216429 0.191455 0.222774 0.195803 0.210725 0.18743 0.216433 0.191461 0.191455 0.171449 0.195803 0.174502 0.18743 0.168556 0.191461 0.171453 0.375203 0.305675 0.385786 0.311884 0.347055 0.290284 0.355766 0.29538 0.305675 0.257666 0.311884 0.261289 0.290284 0.248871 0.29538 0.251627 0.257666 0.222774 0.261289 0.225584 0.248871 0.216433 0.251627 0.21853 0.222774 0.195803 0.225584 0.197261 0.216433 0.191461 0.21853 0.192873 0.195803 0.174502 0.197261 0.175577 0.191461 0.171453 0.192873 0.172449 0.385786 0.311884 0.375165 0.305663 0.355766 0.29538 0.34706 0.290281 0.311884 0.261289 0.305663 0.257663 0.29538 0.251627 0.290281 0.248869 0.261289 0.225584 0.257663 0.222773 0.251627 0.21853 0.248869 0.216432 0.225584 0.197261 0.222773 0.195803 0.21853 0.192873 0.216432 0.19146 0.197261 0.175577 0.195803 0.174502 0.192873 0.172449 0.19146 0.171453 0.480732 0.375165 0.42743 0.347167 0.427557 0.34706 0.386278 0.323565 0.375165 0.305663 0.347167 0.290295 0.34706 0.290281 0.323565 0.27613 0.305663 0.257663 0.290295 0.248869 0.290281 0.248869 0.27613 0.23984 0.257663 0.222773 0.248869 0.216428 0.248869 0.216432 0.23984 0.210724 0.222773 0.195803 0.216428 0.191454 0.216432 0.19146 0.210724 0.187429 0.195803 0.174502 0.191454 0.171448 0.19146 0.171453 0.187429 0.168555 0.42743 0.347167 0.366048 0.312315 0.386278 0.323565 0.339331 0.295429 0.347167 0.290295 0.312315 0.268666 0.323565 0.27613 0.295429 0.258071 0.290295 0.248869 0.268666 0.234587 0.27613 0.23984 0.258071 0.227292 0.248869 0.216428 0.234587 0.207123 0.23984 0.210724 0.227292 0.20207 0.216428 0.191454 0.207123 0.184877 0.210724 0.187429 0.20207 0.181271 0.191454 0.171448 0.184877 0.166686 0.187429 0.168555 0.181271 0.164029 0.480791 0.427512 0.374927 0.347202 0.427559 0.38636 0.347164 0.323631 0.427512 0.366048 0.347202 0.312373 0.38636 0.339331 0.323631 0.29547 0.366048 0.312315 0.312373 0.277119 0.339331 0.295429 0.29547 0.265431 0.312315 0.268666 0.277119 0.245671 0.295429 0.258071 0.265431 0.23739 0.268666 0.234587 0.245671 0.218615 0.258071 0.227292 0.23739 0.212739 0.234587 0.207123 0.218615 0.19586 0.227292 0.20207 0.212739 0.191589 0.207123 0.184877 0.19586 0.176712 0.20207 0.181271 0.191589 0.173557 0.184877 0.166686 0.176712 0.160622 0.181271 0.164029 0.173557 0.158246 0.374778 0.385806 0.304993 0.31218 0.347283 0.355756 0.289458 0.295432 0.385806 0.374927 0.31218 0.306439 0.355756 0.347164 0.295432 0.290515 0.374927 0.347202 0.306439 0.29059 0.347164 0.323631 0.290515 0.276356 0.347202 0.312373 0.29059 0.268807 0.323631 0.29547 0.276356 0.258173 0.312373 0.277119 0.268807 0.245767 0.29547 0.265431 0.258173 0.237468 0.277119 0.245671 0.245767 0.223022 0.265431 0.23739 0.237468 0.216797 0.245671 0.218615 0.223022 0.202223 0.23739 0.212739 0.216797 0.197537 0.218615 0.19586 0.202223 0.183779 0.212739 0.191589 0.197537 0.180242 0.19586 0.176712 0.183779 0.167673 0.191589 0.173557 0.180242 0.164972 0.176712 0.160622 0.167673 0.153488 0.173557 0.158246 0.164972 0.151416 0.289454 0.295429 0.347279 0.355745 0.268184 0.272518 0.312149 0.318324 0.295429 0.290516 0.355745 0.34716 0.272518 0.268682 0.318324 0.3123 0.290516 0.276363 0.34716 0.323608 0.268682 0.258126 0.3123 0.295438 0.276363 0.258117 0.323608 0.295602 0.258126 0.242836 0.295438 0.273157 0.258117 0.237467 0.295602 0.265439 0.242836 0.225367 0.273157 0.248847 0.237467 0.216797 0.265439 0.237389 0.225367 0.207462 0.248847 0.225291 0.216797 0.197537 0.237389 0.212739 0.207462 0.190396 0.225291 0.203896 0.197537 0.180242 0.212739 0.19159 0.190396 0.174766 0.203896 0.18505 0.180242 0.164973 0.19159 0.173558 0.174766 0.160744 0.18505 0.168652 0.164973 0.151417 0.173558 0.158247 0.160744 0.14814 0.168652 0.154506 0.347279 0.355745 0.42774 0.443295 0.312149 0.318324 0.366429 0.376 0.355745 0.34716 0.443295 0.427485 0.318324 0.3123 0.376 0.366009 0.34716 0.323608 0.427485 0.386303 0.3123 0.295438 0.366009 0.339292 0.323608 0.295602 0.386303 0.339538 0.295438 0.273157 0.339292 0.306604 0.295602 0.265439 0.339538 0.295557 0.273157 0.248847 0.306604 0.273122 0.265439 0.237389 0.295557 0.258044 0.248847 0.225291 0.273122 0.242766 0.237389 0.212739 0.258044 0.227296 0.225291 0.203896 0.242766 0.216598 0.212739 0.19159 0.227296 0.20207 0.203896 0.18505 0.216598 0.194424 0.19159 0.173558 0.20207 0.181272 0.18505 0.168652 0.194424 0.1757 0.173558 0.158247 0.181272 0.16403 0.168652 0.154506 0.1757 0.159874 0.386303 0.339538 0.458393 0.386204 0.339292 0.306604 0.38626 0.339425 0.339538 0.295557 0.386204 0.32354 0.306604 0.273122 0.339425 0.295519 0.295557 0.258044 0.32354 0.276139 0.273122 0.242766 0.295519 0.257984 0.258044 0.227296 0.276139 0.239841 0.242766 0.216598 0.257984 0.227281 0.227296 0.20207 0.239841 0.210725 0.216598 0.194424 0.227281 0.202075 0.20207 0.181272 0.210725 0.18743 0.194424 0.1757 0.202075 0.181286 0.181272 0.16403 0.18743 0.168556 0.1757 0.159874 0.181286 0.164047 0.386204 0.32354 0.427498 0.347055 0.339425 0.295519 0.365259 0.311119 0.32354 0.276139 0.347055 0.290284 0.295519 0.257984 0.311119 0.268646 0.276139 0.239841 0.290284 0.248871 0.257984 0.227281 0.268646 0.234593 0.239841 0.210725 0.248871 0.216433 0.227281 0.202075 0.234593 0.207131 0.210725 0.18743 0.216433 0.191461 0.202075 0.181286 0.207131 0.184899 0.18743 0.168556 0.191461 0.171453 0.181286 0.164047 0.184899 0.166708 0.427498 0.347055 0.44312 0.355766 0.365259 0.311119 0.376419 0.318167 0.347055 0.290284 0.355766 0.29538 0.311119 0.268646 0.318167 0.273145 0.290284 0.248871 0.29538 0.251627 0.268646 0.234593 0.273145 0.237148 0.248871 0.216433 0.251627 0.21853 0.234593 0.207131 0.237148 0.208896 0.216433 0.191461 0.21853 0.192873 0.207131 0.184899 0.208896 0.186152 0.191461 0.171453 0.192873 0.172449 0.184899 0.166708 0.186152 0.167625 0.44312 0.355766 0.427557 0.34706 0.376419 0.318167 0.365155 0.31113 0.355766 0.29538 0.34706 0.290281 0.318167 0.273145 0.31113 0.268642 0.29538 0.251627 0.290281 0.248869 0.273145 0.237148 0.268642 0.234592 0.251627 0.21853 0.248869 0.216432 0.237148 0.208896 0.234592 0.20713 0.21853 0.192873 0.216432 0.19146 0.208896 0.186152 0.20713 0.184898 0.192873 0.172449 0.19146 0.171453 0.186152 0.167625 0.184898 0.166708 0.427557 0.34706 0.386278 0.323565 0.365155 0.31113 0.339458 0.295498 0.34706 0.290281 0.323565 0.27613 0.31113 0.268642 0.295498 0.25798 0.290281 0.248869 0.27613 0.23984 0.268642 0.234592 0.25798 0.227278 0.248869 0.216432 0.23984 0.210724 0.234592 0.20713 0.227278 0.202074 0.216432 0.19146 0.210724 0.187429 0.20713 0.184898 0.202074 0.181285 0.19146 0.171453 0.187429 0.168555 0.184898 0.166708 0.181285 0.164046 0.458491 0.386278 0.38636 0.339331 0.386004 0.339458 0.339319 0.306575 0.386278 0.323565 0.339331 0.295429 0.339458 0.295498 0.306575 0.273106 0.323565 0.27613 0.295429 0.258071 0.295498 0.25798 0.273106 0.242751 0.27613 0.23984 0.258071 0.227292 0.25798 0.227278 0.242751 0.216597 0.23984 0.210724 0.227292 0.20207 0.227278 0.202074 0.216597 0.194422 0.210724 0.187429 0.20207 0.181271 0.202074 0.181285 0.194422 0.175698 0.187429 0.168555 0.181271 0.164029 0.181285 0.164046 0.175698 0.159873 0.427737 0.443369 0.347283 0.355756 0.366561 0.375889 0.312159 0.318322 0.443369 0.427559 0.355756 0.347164 0.375889 0.365931 0.318322 0.312297 0.427559 0.38636 0.347164 0.323631 0.365931 0.339319 0.312297 0.295418 0.38636 0.339331 0.323631 0.29547 0.339319 0.306575 0.295418 0.273141 0.339331 0.295429 0.29547 0.265431 0.306575 0.273106 0.273141 0.248818 0.295429 0.258071 0.265431 0.23739 0.273106 0.242751 0.248818 0.225283 0.258071 0.227292 0.23739 0.212739 0.242751 0.216597 0.225283 0.203893 0.227292 0.20207 0.212739 0.191589 0.216597 0.194422 0.203893 0.185048 0.20207 0.181271 0.191589 0.173557 0.194422 0.175698 0.185048 0.168651 0.181271 0.164029 0.173557 0.158246 0.175698 0.159873 0.168651 0.154505 0.347283 0.355756 0.289458 0.295432 0.312159 0.318322 0.268185 0.272519 0.355756 0.347164 0.295432 0.290515 0.318322 0.312297 0.272519 0.268679 0.347164 0.323631 0.290515 0.276356 0.312297 0.295418 0.268679 0.258119 0.323631 0.29547 0.276356 0.258173 0.295418 0.273141 0.258119 0.24281 0.29547 0.265431 0.258173 0.237468 0.273141 0.248818 0.24281 0.225355 0.265431 0.23739 0.237468 0.216797 0.248818 0.225283 0.225355 0.207454 0.23739 0.212739 0.216797 0.197537 0.225283 0.203893 0.207454 0.190393 0.212739 0.191589 0.197537 0.180242 0.203893 0.185048 0.190393 0.174764 0.191589 0.173557 0.180242 0.164972 0.185048 0.168651 0.174764 0.160742 0.173557 0.158246 0.164972 0.151416 0.168651 0.154505 0.160742 0.148138 0.268184 0.272518 0.312149 0.318324 0.245229 0.248491 0.27684 0.281157 0.272518 0.268682 0.318324 0.3123 0.248491 0.245618 0.281157 0.276988 0.268682 0.258126 0.3123 0.295438 0.245618 0.237387 0.276988 0.265337 0.258126 0.242836 0.295438 0.273157 0.237387 0.225323 0.265337 0.248796 0.242836 0.225367 0.273157 0.248847 0.225323 0.211102 0.248796 0.229999 0.225367 0.207462 0.248847 0.225291 0.211102 0.19617 0.229999 0.211041 0.207462 0.190396 0.225291 0.203896 0.19617 0.181559 0.211041 0.193157 0.190396 0.174766 0.203896 0.18505 0.181559 0.167859 0.193157 0.176909 0.174766 0.160744 0.18505 0.168652 0.167859 0.155324 0.176909 0.162423 0.160744 0.14814 0.168652 0.154506 0.155324 0.14388 0.162423 0.14968 0.312149 0.318324 0.366429 0.376 0.27684 0.281157 0.312246 0.317687 0.318324 0.3123 0.376 0.366009 0.281157 0.276988 0.317687 0.311617 0.3123 0.295438 0.366009 0.339292 0.276988 0.265337 0.311617 0.295394 0.295438 0.273157 0.339292 0.306604 0.265337 0.248796 0.295394 0.27307 0.273157 0.248847 0.306604 0.273122 0.248796 0.229999 0.27307 0.248784 0.248847 0.225291 0.273122 0.242766 0.229999 0.211041 0.248784 0.22524 0.225291 0.203896 0.242766 0.216598 0.211041 0.193157 0.22524 0.20387 0.203896 0.18505 0.216598 0.194424 0.193157 0.176909 0.20387 0.185047 0.18505 0.168652 0.194424 0.1757 0.176909 0.162423 0.185047 0.168689 0.168652 0.154506 0.1757 0.159874 0.162423 0.14968 0.168689 0.154545 0.366429 0.376 0.427634 0.44322 0.312246 0.317687 0.34722 0.355572 0.376 0.366009 0.44322 0.427421 0.317687 0.311617 0.355572 0.34693 0.366009 0.339292 0.427421 0.38626 0.311617 0.295394 0.34693 0.323413 0.339292 0.306604 0.38626 0.339425 0.295394 0.27307 0.323413 0.295467 0.306604 0.273122 0.339425 0.295519 0.27307 0.248784 0.295467 0.265267 0.273122 0.242766 0.295519 0.257984 0.248784 0.22524 0.265267 0.237289 0.242766 0.216598 0.257984 0.227281 0.22524 0.20387 0.237289 0.212701 0.216598 0.194424 0.227281 0.202075 0.20387 0.185047 0.212701 0.191593 0.194424 0.1757 0.202075 0.181286 0.185047 0.168689 0.191593 0.173613 0.1757 0.159874 0.181286 0.164047 0.168689 0.154545 0.173613 0.158305 0.427421 0.38626 0.480722 0.427331 0.34693 0.323413 0.374703 0.346857 0.38626 0.339425 0.427331 0.365259 0.323413 0.295467 0.346857 0.311063 0.339425 0.295519 0.365259 0.311119 0.295467 0.265267 0.311063 0.276868 0.295519 0.257984 0.311119 0.268646 0.265267 0.237289 0.276868 0.245553 0.257984 0.227281 0.268646 0.234593 0.237289 0.212701 0.245553 0.218593 0.227281 0.202075 0.234593 0.207131 0.212701 0.191593 0.218593 0.195867 0.202075 0.181286 0.207131 0.184899 0.191593 0.173613 0.195867 0.176776 0.181286 0.164047 0.184899 0.166708 0.173613 0.158305 0.176776 0.160689 0.479957 0.502849 0.503947 0.530113 0.374654 0.385582 0.385316 0.397452 0.502849 0.480722 0.530113 0.501576 0.385582 0.374703 0.397452 0.385426 0.427331 0.365259 0.444227 0.376419 0.346857 0.311063 0.355543 0.318116 0.365259 0.311119 0.376419 0.318167 0.311063 0.276868 0.318116 0.281544 0.311119 0.268646 0.318167 0.273145 0.276868 0.245553 0.281544 0.248558 0.268646 0.234593 0.273145 0.237148 0.245553 0.218593 0.248558 0.220682 0.234593 0.207131 0.237148 0.208896 0.218593 0.195867 0.220682 0.197356 0.207131 0.184899 0.208896 0.186152 0.195867 0.176776 0.197356 0.177868 0.184899 0.166708 0.186152 0.167625 0.176776 0.160689 0.177868 0.161507 0.503947 0.530113 0.479826 0.50162 0.385316 0.397452 0.374579 0.385439 0.530113 0.501576 0.50162 0.477875 0.397452 0.385426 0.385439 0.374442 0.501576 0.444227 0.477875 0.428449 0.385426 0.355543 0.374442 0.346825 0.444227 0.376419 0.428449 0.365155 0.355543 0.318116 0.346825 0.311078 0.376419 0.318167 0.365155 0.31113 0.318116 0.281544 0.311078 0.276858 0.318167 0.273145 0.31113 0.268642 0.281544 0.248558 0.276858 0.245551 0.273145 0.237148 0.268642 0.234592 0.248558 0.220682 0.245551 0.218591 0.237148 0.208896 0.234592 0.20713 0.220682 0.197356 0.218591 0.195866 0.208896 0.186152 0.20713 0.184898 0.197356 0.177868 0.195866 0.176775 0.186152 0.167625 0.184898 0.166708 0.177868 0.161507 0.176775 0.160688 0.50162 0.477875 0.444395 0.428358 0.385439 0.374442 0.355537 0.346871 0.477875 0.428449 0.428358 0.386004 0.374442 0.346825 0.346871 0.323408 0.428449 0.365155 0.386004 0.339458 0.346825 0.311078 0.323408 0.295447 0.365155 0.31113 0.339458 0.295498 0.311078 0.276858 0.295447 0.26526 0.31113 0.268642 0.295498 0.25798 0.276858 0.245551 0.26526 0.237283 0.268642 0.234592 0.25798 0.227278 0.245551 0.218591 0.237283 0.212698 0.234592 0.20713 0.227278 0.202074 0.218591 0.195866 0.212698 0.191591 0.20713 0.184898 0.202074 0.181285 0.195866 0.176775 0.191591 0.173611 0.184898 0.166708 0.181285 0.164046 0.176775 0.160688 0.17