<?xml version="1.0" ?> 
<!-- 
# vtk DataFile Version 3.0
#This file was generated by the deal.II library on 16:48:46 at 2019/11/27
-->
<VTKFile type="UnstructuredGrid" version="0.1" byte_order="LittleEndian">
<UnstructuredGrid>
<Piece NumberOfPoints="17632" NumberOfCells="2204" >
  <Points>
    <DataArray type="Float32" NumberOfComponents="3" format="ascii">
-50 -50 0
-40 -50 0
-50 -40 0
-40 -40 0
-50 -50 10
-40 -50 10
-50 -40 10
-40 -40 10
-40 -50 0
-30 -50 0
-40 -40 0
-30 -40 0
-40 -50 10
-30 -50 10
-40 -40 10
-30 -40 10
-30 -50 0
-20 -50 0
-30 -40 0
-20 -40 0
-30 -50 10
-20 -50 10
-30 -40 10
-20 -40 10
-20 -50 0
-10 -50 0
-20 -40 0
-10 -40 0
-20 -50 10
-10 -50 10
-20 -40 10
-10 -40 10
-10 -50 0
0 -50 0
-10 -40 0
0 -40 0
-10 -50 10
0 -50 10
-10 -40 10
0 -40 10
0 -50 0
10 -50 0
0 -40 0
10 -40 0
0 -50 10
10 -50 10
0 -40 10
10 -40 10
10 -50 0
20 -50 0
10 -40 0
20 -40 0
10 -50 10
20 -50 10
10 -40 10
20 -40 10
20 -50 0
30 -50 0
20 -40 0
30 -40 0
20 -50 10
30 -50 10
20 -40 10
30 -40 10
30 -50 0
40 -50 0
30 -40 0
40 -40 0
30 -50 10
40 -50 10
30 -40 10
40 -40 10
40 -50 0
50 -50 0
40 -40 0
50 -40 0
40 -50 10
50 -50 10
40 -40 10
50 -40 10
-50 -40 0
-40 -40 0
-50 -30 0
-40 -30 0
-50 -40 10
-40 -40 10
-50 -30 10
-40 -30 10
-40 -40 0
-30 -40 0
-40 -30 0
-30 -30 0
-40 -40 10
-30 -40 10
-40 -30 10
-30 -30 10
-30 -40 0
-20 -40 0
-30 -30 0
-20 -30 0
-30 -40 10
-20 -40 10
-30 -30 10
-20 -30 10
-20 -40 0
-10 -40 0
-20 -30 0
-10 -30 0
-20 -40 10
-10 -40 10
-20 -30 10
-10 -30 10
-10 -40 0
0 -40 0
-10 -30 0
0 -30 0
-10 -40 10
0 -40 10
-10 -30 10
0 -30 10
0 -40 0
10 -40 0
0 -30 0
10 -30 0
0 -40 10
10 -40 10
0 -30 10
10 -30 10
10 -40 0
20 -40 0
10 -30 0
20 -30 0
10 -40 10
20 -40 10
10 -30 10
20 -30 10
20 -40 0
30 -40 0
20 -30 0
30 -30 0
20 -40 10
30 -40 10
20 -30 10
30 -30 10
30 -40 0
40 -40 0
30 -30 0
40 -30 0
30 -40 10
40 -40 10
30 -30 10
40 -30 10
40 -40 0
50 -40 0
40 -30 0
50 -30 0
40 -40 10
50 -40 10
40 -30 10
50 -30 10
-40 -30 0
-30 -30 0
-40 -20 0
-30 -20 0
-40 -30 10
-30 -30 10
-40 -20 10
-30 -20 10
-30 -30 0
-20 -30 0
-30 -20 0
-20 -20 0
-30 -30 10
-20 -30 10
-30 -20 10
-20 -20 10
0 -30 0
10 -30 0
0 -20 0
10 -20 0
0 -30 10
10 -30 10
0 -20 10
10 -20 10
10 -30 0
20 -30 0
10 -20 0
20 -20 0
10 -30 10
20 -30 10
10 -20 10
20 -20 10
20 -30 0
30 -30 0
20 -20 0
30 -20 0
20 -30 10
30 -30 10
20 -20 10
30 -20 10
30 -30 0
40 -30 0
30 -20 0
40 -20 0
30 -30 10
40 -30 10
30 -20 10
40 -20 10
40 -30 0
50 -30 0
40 -20 0
50 -20 0
40 -30 10
50 -30 10
40 -20 10
50 -20 10
-10 -20 0
0 -20 0
-10 -10 0
0 -10 0
-10 -20 10
0 -20 10
-10 -10 10
0 -10 10
0 -20 0
10 -20 0
0 -10 0
10 -10 0
0 -20 10
10 -20 10
0 -10 10
10 -10 10
10 -20 0
20 -20 0
10 -10 0
20 -10 0
10 -20 10
20 -20 10
10 -10 10
20 -10 10
20 -20 0
30 -20 0
20 -10 0
30 -10 0
20 -20 10
30 -20 10
20 -10 10
30 -10 10
30 -20 0
40 -20 0
30 -10 0
40 -10 0
30 -20 10
40 -20 10
30 -10 10
40 -10 10
40 -20 0
50 -20 0
40 -10 0
50 -10 0
40 -20 10
50 -20 10
40 -10 10
50 -10 10
20 -10 0
30 -10 0
20 0 0
30 0 0
20 -10 10
30 -10 10
20 0 10
30 0 10
30 -10 0
40 -10 0
30 0 0
40 0 0
30 -10 10
40 -10 10
30 0 10
40 0 10
40 -10 0
50 -10 0
40 0 0
50 0 0
40 -10 10
50 -10 10
40 0 10
50 0 10
20 0 0
30 0 0
20 10 0
30 10 0
20 0 10
30 0 10
20 10 10
30 10 10
30 0 0
40 0 0
30 10 0
40 10 0
30 0 10
40 0 10
30 10 10
40 10 10
40 0 0
50 0 0
40 10 0
50 10 0
40 0 10
50 0 10
40 10 10
50 10 10
0 10 0
10 10 0
0 20 0
10 20 0
0 10 10
10 10 10
0 20 10
10 20 10
10 10 0
20 10 0
10 20 0
20 20 0
10 10 10
20 10 10
10 20 10
20 20 10
20 10 0
30 10 0
20 20 0
30 20 0
20 10 10
30 10 10
20 20 10
30 20 10
30 10 0
40 10 0
30 20 0
40 20 0
30 10 10
40 10 10
30 20 10
40 20 10
40 10 0
50 10 0
40 20 0
50 20 0
40 10 10
50 10 10
40 20 10
50 20 10
-40 20 0
-30 20 0
-40 30 0
-30 30 0
-40 20 10
-30 20 10
-40 30 10
-30 30 10
-30 20 0
-20 20 0
-30 30 0
-20 30 0
-30 20 10
-20 20 10
-30 30 10
-20 30 10
0 20 0
10 20 0
0 30 0
10 30 0
0 20 10
10 20 10
0 30 10
10 30 10
10 20 0
20 20 0
10 30 0
20 30 0
10 20 10
20 20 10
10 30 10
20 30 10
20 20 0
30 20 0
20 30 0
30 30 0
20 20 10
30 20 10
20 30 10
30 30 10
30 20 0
40 20 0
30 30 0
40 30 0
30 20 10
40 20 10
30 30 10
40 30 10
40 20 0
50 20 0
40 30 0
50 30 0
40 20 10
50 20 10
40 30 10
50 30 10
-50 30 0
-40 30 0
-50 40 0
-40 40 0
-50 30 10
-40 30 10
-50 40 10
-40 40 10
-40 30 0
-30 30 0
-40 40 0
-30 40 0
-40 30 10
-30 30 10
-40 40 10
-30 40 10
-30 30 0
-20 30 0
-30 40 0
-20 40 0
-30 30 10
-20 30 10
-30 40 10
-20 40 10
-20 30 0
-10 30 0
-20 40 0
-10 40 0
-20 30 10
-10 30 10
-20 40 10
-10 40 10
-10 30 0
0 30 0
-10 40 0
0 40 0
-10 30 10
0 30 10
-10 40 10
0 40 10
0 30 0
10 30 0
0 40 0
10 40 0
0 30 10
10 30 10
0 40 10
10 40 10
10 30 0
20 30 0
10 40 0
20 40 0
10 30 10
20 30 10
10 40 10
20 40 10
20 30 0
30 30 0
20 40 0
30 40 0
20 30 10
30 30 10
20 40 10
30 40 10
30 30 0
40 30 0
30 40 0
40 40 0
30 30 10
40 30 10
30 40 10
40 40 10
40 30 0
50 30 0
40 40 0
50 40 0
40 30 10
50 30 10
40 40 10
50 40 10
-50 40 0
-40 40 0
-50 50 0
-40 50 0
-50 40 10
-40 40 10
-50 50 10
-40 50 10
-40 40 0
-30 40 0
-40 50 0
-30 50 0
-40 40 10
-30 40 10
-40 50 10
-30 50 10
-30 40 0
-20 40 0
-30 50 0
-20 50 0
-30 40 10
-20 40 10
-30 50 10
-20 50 10
-20 40 0
-10 40 0
-20 50 0
-10 50 0
-20 40 10
-10 40 10
-20 50 10
-10 50 10
-10 40 0
0 40 0
-10 50 0
0 50 0
-10 40 10
0 40 10
-10 50 10
0 50 10
0 40 0
10 40 0
0 50 0
10 50 0
0 40 10
10 40 10
0 50 10
10 50 10
10 40 0
20 40 0
10 50 0
20 50 0
10 40 10
20 40 10
10 50 10
20 50 10
20 40 0
30 40 0
20 50 0
30 50 0
20 40 10
30 40 10
20 50 10
30 50 10
30 40 0
40 40 0
30 50 0
40 50 0
30 40 10
40 40 10
30 50 10
40 50 10
40 40 0
50 40 0
40 50 0
50 50 0
40 40 10
50 40 10
40 50 10
50 50 10
-50 -50 10
-40 -50 10
-50 -40 10
-40 -40 10
-50 -50 20
-40 -50 20
-50 -40 20
-40 -40 20
-40 -50 10
-30 -50 10
-40 -40 10
-30 -40 10
-40 -50 20
-30 -50 20
-40 -40 20
-30 -40 20
-30 -50 10
-20 -50 10
-30 -40 10
-20 -40 10
-30 -50 20
-20 -50 20
-30 -40 20
-20 -40 20
-20 -50 10
-10 -50 10
-20 -40 10
-10 -40 10
-20 -50 20
-10 -50 20
-20 -40 20
-10 -40 20
-10 -50 10
0 -50 10
-10 -40 10
0 -40 10
-10 -50 20
0 -50 20
-10 -40 20
0 -40 20
0 -50 10
10 -50 10
0 -40 10
10 -40 10
0 -50 20
10 -50 20
0 -40 20
10 -40 20
10 -50 10
20 -50 10
10 -40 10
20 -40 10
10 -50 20
20 -50 20
10 -40 20
20 -40 20
20 -50 10
30 -50 10
20 -40 10
30 -40 10
20 -50 20
30 -50 20
20 -40 20
30 -40 20
30 -50 10
40 -50 10
30 -40 10
40 -40 10
30 -50 20
40 -50 20
30 -40 20
40 -40 20
40 -50 10
50 -50 10
40 -40 10
50 -40 10
40 -50 20
50 -50 20
40 -40 20
50 -40 20
-50 -40 10
-40 -40 10
-50 -30 10
-40 -30 10
-50 -40 20
-40 -40 20
-50 -30 20
-40 -30 20
-40 -40 10
-30 -40 10
-40 -30 10
-30 -30 10
-40 -40 20
-30 -40 20
-40 -30 20
-30 -30 20
-30 -40 10
-20 -40 10
-30 -30 10
-20 -30 10
-30 -40 20
-20 -40 20
-30 -30 20
-20 -30 20
-20 -40 10
-10 -40 10
-20 -30 10
-10 -30 10
-20 -40 20
-10 -40 20
-20 -30 20
-10 -30 20
-10 -40 10
0 -40 10
-10 -30 10
0 -30 10
-10 -40 20
0 -40 20
-10 -30 20
0 -30 20
0 -40 10
10 -40 10
0 -30 10
10 -30 10
0 -40 20
10 -40 20
0 -30 20
10 -30 20
10 -40 10
20 -40 10
10 -30 10
20 -30 10
10 -40 20
20 -40 20
10 -30 20
20 -30 20
20 -40 10
30 -40 10
20 -30 10
30 -30 10
20 -40 20
30 -40 20
20 -30 20
30 -30 20
30 -40 10
40 -40 10
30 -30 10
40 -30 10
30 -40 20
40 -40 20
30 -30 20
40 -30 20
40 -40 10
50 -40 10
40 -30 10
50 -30 10
40 -40 20
50 -40 20
40 -30 20
50 -30 20
0 -30 10
10 -30 10
0 -20 10
10 -20 10
0 -30 20
10 -30 20
0 -20 20
10 -20 20
10 -30 10
20 -30 10
10 -20 10
20 -20 10
10 -30 20
20 -30 20
10 -20 20
20 -20 20
20 -30 10
30 -30 10
20 -20 10
30 -20 10
20 -30 20
30 -30 20
20 -20 20
30 -20 20
30 -30 10
40 -30 10
30 -20 10
40 -20 10
30 -30 20
40 -30 20
30 -20 20
40 -20 20
40 -30 10
50 -30 10
40 -20 10
50 -20 10
40 -30 20
50 -30 20
40 -20 20
50 -20 20
0 -20 10
10 -20 10
0 -10 10
10 -10 10
0 -20 20
10 -20 20
0 -10 20
10 -10 20
10 -20 10
20 -20 10
10 -10 10
20 -10 10
10 -20 20
20 -20 20
10 -10 20
20 -10 20
20 -20 10
30 -20 10
20 -10 10
30 -10 10
20 -20 20
30 -20 20
20 -10 20
30 -10 20
30 -20 10
40 -20 10
30 -10 10
40 -10 10
30 -20 20
40 -20 20
30 -10 20
40 -10 20
40 -20 10
50 -20 10
40 -10 10
50 -10 10
40 -20 20
50 -20 20
40 -10 20
50 -10 20
0 -10 10
10 -10 10
0 0 10
10 0 10
0 -10 20
10 -10 20
0 0 20
10 0 20
10 -10 10
20 -10 10
10 0 10
20 0 10
10 -10 20
20 -10 20
10 0 20
20 0 20
20 -10 10
30 -10 10
20 0 10
30 0 10
20 -10 20
30 -10 20
20 0 20
30 0 20
30 -10 10
40 -10 10
30 0 10
40 0 10
30 -10 20
40 -10 20
30 0 20
40 0 20
40 -10 10
50 -10 10
40 0 10
50 0 10
40 -10 20
50 -10 20
40 0 20
50 0 20
0 0 10
10 0 10
0 10 10
10 10 10
0 0 20
10 0 20
0 10 20
10 10 20
10 0 10
20 0 10
10 10 10
20 10 10
10 0 20
20 0 20
10 10 20
20 10 20
20 0 10
30 0 10
20 10 10
30 10 10
20 0 20
30 0 20
20 10 20
30 10 20
30 0 10
40 0 10
30 10 10
40 10 10
30 0 20
40 0 20
30 10 20
40 10 20
40 0 10
50 0 10
40 10 10
50 10 10
40 0 20
50 0 20
40 10 20
50 10 20
0 10 10
10 10 10
0 20 10
10 20 10
0 10 20
10 10 20
0 20 20
10 20 20
10 10 10
20 10 10
10 20 10
20 20 10
10 10 20
20 10 20
10 20 20
20 20 20
20 10 10
30 10 10
20 20 10
30 20 10
20 10 20
30 10 20
20 20 20
30 20 20
30 10 10
40 10 10
30 20 10
40 20 10
30 10 20
40 10 20
30 20 20
40 20 20
40 10 10
50 10 10
40 20 10
50 20 10
40 10 20
50 10 20
40 20 20
50 20 20
0 20 10
10 20 10
0 30 10
10 30 10
0 20 20
10 20 20
0 30 20
10 30 20
10 20 10
20 20 10
10 30 10
20 30 10
10 20 20
20 20 20
10 30 20
20 30 20
20 20 10
30 20 10
20 30 10
30 30 10
20 20 20
30 20 20
20 30 20
30 30 20
30 20 10
40 20 10
30 30 10
40 30 10
30 20 20
40 20 20
30 30 20
40 30 20
40 20 10
50 20 10
40 30 10
50 30 10
40 20 20
50 20 20
40 30 20
50 30 20
-50 30 10
-40 30 10
-50 40 10
-40 40 10
-50 30 20
-40 30 20
-50 40 20
-40 40 20
-40 30 10
-30 30 10
-40 40 10
-30 40 10
-40 30 20
-30 30 20
-40 40 20
-30 40 20
-30 30 10
-20 30 10
-30 40 10
-20 40 10
-30 30 20
-20 30 20
-30 40 20
-20 40 20
-20 30 10
-10 30 10
-20 40 10
-10 40 10
-20 30 20
-10 30 20
-20 40 20
-10 40 20
-10 30 10
0 30 10
-10 40 10
0 40 10
-10 30 20
0 30 20
-10 40 20
0 40 20
0 30 10
10 30 10
0 40 10
10 40 10
0 30 20
10 30 20
0 40 20
10 40 20
10 30 10
20 30 10
10 40 10
20 40 10
10 30 20
20 30 20
10 40 20
20 40 20
20 30 10
30 30 10
20 40 10
30 40 10
20 30 20
[...]
  <PointData Scalars="scalars">
    <DataArray type="Float32" Name="u" format="ascii">
0.292565 0.311261 0.35476 0.384476 0.287963 0.305545 0.346531 0.374193 0.311261 0.31774 0.384476 0.39625 0.305545 0.311681 0.374193 0.384625 0.31774 0.311732 0.39625 0.384584 0.311681 0.306033 0.384625 0.374302 0.311732 0.295424 0.384584 0.355615 0.306033 0.290489 0.374302 0.347155 0.295424 0.272826 0.355615 0.318381 0.290489 0.268991 0.347155 0.312275 0.272826 0.248882 0.318381 0.281711 0.268991 0.245956 0.312275 0.277487 0.248882 0.225447 0.281711 0.248827 0.245956 0.22326 0.277487 0.24589 0.225447 0.204027 0.248827 0.220896 0.22326 0.202397 0.24589 0.21883 0.204027 0.185116 0.220896 0.197456 0.202397 0.183895 0.21883 0.195976 0.185116 0.168395 0.197456 0.177942 0.183895 0.167479 0.195976 0.176859 0.35476 0.384476 0.449479 0.498996 0.346531 0.374193 0.431326 0.480697 0.384476 0.39625 0.498996 0.529306 0.374193 0.384625 0.480697 0.498945 0.39625 0.384584 0.529306 0.498636 0.384625 0.374302 0.498945 0.480255 0.384584 0.355615 0.498636 0.445764 0.374302 0.347155 0.480255 0.42895 0.355615 0.318381 0.445764 0.376031 0.347155 0.312275 0.42895 0.366077 0.318381 0.281711 0.376031 0.318147 0.312275 0.277487 0.366077 0.31209 0.281711 0.248827 0.318147 0.273089 0.277487 0.24589 0.31209 0.269227 0.248827 0.220896 0.273089 0.237344 0.24589 0.21883 0.269227 0.234776 0.220896 0.197456 0.237344 0.208984 0.21883 0.195976 0.234776 0.207232 0.197456 0.177942 0.208984 0.186246 0.195976 0.176859 0.207232 0.185004 0.498996 0.529306 0.717829 0.814411 0.480697 0.498945 0.655665 0.717157 0.529306 0.498636 0.814411 0.716418 0.498945 0.480255 0.717157 0.654462 0.376031 0.318147 0.441866 0.355612 0.366077 0.31209 0.42709 0.347143 0.318147 0.273089 0.355612 0.295681 0.31209 0.269227 0.347143 0.290833 0.273089 0.237344 0.295681 0.251598 0.269227 0.234776 0.290833 0.248546 0.237344 0.208984 0.251598 0.218587 0.234776 0.207232 0.248546 0.216575 0.208984 0.186246 0.218587 0.192901 0.207232 0.185004 0.216575 0.191517 0.566846 0.441866 0.719058 0.504043 0.533772 0.42709 0.6492 0.478056 0.441866 0.355612 0.504043 0.383337 0.42709 0.347143 0.478056 0.373405 0.355612 0.295681 0.383337 0.311903 0.347143 0.290833 0.373405 0.305797 0.295681 0.251598 0.311903 0.262058 0.290833 0.248546 0.305797 0.258781 0.251598 0.218587 0.262058 0.225031 0.248546 0.216575 0.258781 0.222785 0.218587 0.192901 0.225031 0.197246 0.216575 0.191517 0.222785 0.195774 0.311903 0.262058 0.320007 0.26553 0.305797 0.258781 0.311898 0.262064 0.262058 0.225031 0.26553 0.227345 0.258781 0.222785 0.262064 0.225034 0.225031 0.197246 0.227345 0.198759 0.222785 0.195774 0.225034 0.197246 0.320007 0.26553 0.31187 0.262067 0.311898 0.262064 0.30587 0.258793 0.26553 0.227345 0.262067 0.225037 0.262064 0.225034 0.258793 0.22279 0.227345 0.198759 0.225037 0.19725 0.225034 0.197246 0.22279 0.195778 0.50318 0.38337 0.444981 0.355854 0.48135 0.373049 0.428633 0.347279 0.38337 0.31187 0.355854 0.295724 0.373049 0.30587 0.347279 0.290875 0.31187 0.262067 0.295724 0.251614 0.30587 0.258793 0.290875 0.248561 0.262067 0.225037 0.251614 0.218597 0.258793 0.22279 0.248561 0.216585 0.225037 0.19725 0.218597 0.192908 0.22279 0.195778 0.216585 0.191523 0.71787 0.814502 0.499027 0.529361 0.655695 0.717221 0.480721 0.498987 0.814502 0.716715 0.529361 0.498727 0.717221 0.654639 0.498987 0.480301 0.444981 0.355854 0.375693 0.318318 0.428633 0.347279 0.365881 0.312204 0.355854 0.295724 0.318318 0.273126 0.347279 0.290875 0.312204 0.269261 0.295724 0.251614 0.273126 0.237364 0.290875 0.248561 0.269261 0.234794 0.251614 0.218597 0.237364 0.208996 0.248561 0.216585 0.234794 0.207243 0.218597 0.192908 0.208996 0.186255 0.216585 0.191523 0.207243 0.185012 0.449499 0.499027 0.354776 0.384496 0.431343 0.480721 0.346545 0.374209 0.499027 0.529361 0.384496 0.396274 0.480721 0.498987 0.374209 0.384644 0.529361 0.498727 0.396274 0.384604 0.498987 0.480301 0.384644 0.374313 0.498727 0.445868 0.384604 0.355611 0.480301 0.428951 0.374313 0.347143 0.445868 0.375693 0.355611 0.31838 0.428951 0.365881 0.347143 0.312265 0.375693 0.318318 0.31838 0.281697 0.365881 0.312204 0.312265 0.27748 0.318318 0.273126 0.281697 0.248855 0.312204 0.269261 0.27748 0.245912 0.273126 0.237364 0.248855 0.220911 0.269261 0.234794 0.245912 0.218845 0.237364 0.208996 0.220911 0.197468 0.234794 0.207243 0.218845 0.195987 0.208996 0.186255 0.197468 0.177952 0.207243 0.185012 0.195987 0.176867 0.354776 0.384496 0.292577 0.311275 0.346545 0.374209 0.287974 0.305557 0.384496 0.396274 0.311275 0.317754 0.374209 0.384644 0.305557 0.311691 0.396274 0.384604 0.317754 0.31174 0.384644 0.374313 0.311691 0.306037 0.384604 0.355611 0.31174 0.295419 0.374313 0.347143 0.306037 0.290482 0.355611 0.31838 0.295419 0.272813 0.347143 0.312265 0.290482 0.26898 0.31838 0.281697 0.272813 0.248885 0.312265 0.27748 0.26898 0.245957 0.281697 0.248855 0.248885 0.225455 0.27748 0.245912 0.245957 0.223268 0.248855 0.220911 0.225455 0.204041 0.245912 0.218845 0.223268 0.202409 0.220911 0.197468 0.204041 0.185127 0.218845 0.195987 0.202409 0.183905 0.197468 0.177952 0.185127 0.168404 0.195987 0.176867 0.183905 0.167487 0.287963 0.305545 0.346531 0.374193 0.27534 0.289066 0.325169 0.346861 0.305545 0.311681 0.374193 0.384625 0.289066 0.295303 0.346861 0.355697 0.311681 0.306033 0.384625 0.374302 0.295303 0.29047 0.355697 0.347168 0.306033 0.290489 0.374302 0.347155 0.29047 0.276491 0.347168 0.32387 0.290489 0.268991 0.347155 0.312275 0.276491 0.258388 0.32387 0.295974 0.268991 0.245956 0.312275 0.277487 0.258388 0.237747 0.295974 0.265796 0.245956 0.22326 0.277487 0.24589 0.237747 0.21704 0.265796 0.237673 0.22326 0.202397 0.24589 0.21883 0.21704 0.197726 0.237673 0.212952 0.202397 0.183895 0.21883 0.195976 0.197726 0.180368 0.212952 0.191723 0.183895 0.167479 0.195976 0.176859 0.180368 0.164815 0.191723 0.173719 0.346531 0.374193 0.431326 0.480697 0.325169 0.346861 0.389155 0.429247 0.374193 0.384625 0.480697 0.498945 0.346861 0.355697 0.429247 0.446155 0.384625 0.374302 0.498945 0.480255 0.355697 0.347168 0.446155 0.4292 0.374302 0.347155 0.480255 0.42895 0.347168 0.32387 0.4292 0.386988 0.347155 0.312275 0.42895 0.366077 0.32387 0.295974 0.386988 0.34012 0.312275 0.277487 0.366077 0.31209 0.295974 0.265796 0.34012 0.295932 0.277487 0.24589 0.31209 0.269227 0.265796 0.237673 0.295932 0.258411 0.24589 0.21883 0.269227 0.234776 0.237673 0.212952 0.258411 0.227556 0.21883 0.195976 0.234776 0.207232 0.212952 0.191723 0.227556 0.202223 0.195976 0.176859 0.207232 0.185004 0.191723 0.173719 0.202223 0.181417 0.366077 0.31209 0.42709 0.347143 0.34012 0.295932 0.387248 0.323702 0.31209 0.269227 0.347143 0.290833 0.295932 0.258411 0.323702 0.277121 0.269227 0.234776 0.290833 0.248546 0.258411 0.227556 0.277121 0.240036 0.234776 0.207232 0.248546 0.216575 0.227556 0.202223 0.240036 0.210838 0.207232 0.185004 0.216575 0.191517 0.202223 0.181417 0.210838 0.187547 0.42709 0.347143 0.478056 0.373405 0.387248 0.323702 0.429475 0.347273 0.347143 0.290833 0.373405 0.305797 0.323702 0.277121 0.347273 0.290845 0.290833 0.248546 0.305797 0.258781 0.277121 0.240036 0.290845 0.248553 0.248546 0.216575 0.258781 0.222785 0.240036 0.210838 0.248553 0.216582 0.216575 0.191517 0.222785 0.195774 0.210838 0.187547 0.216582 0.19152 0.478056 0.373405 0.503761 0.383163 0.429475 0.347273 0.444746 0.355847 0.373405 0.305797 0.383163 0.311898 0.347273 0.290845 0.355847 0.29573 0.305797 0.258781 0.311898 0.262064 0.290845 0.248553 0.29573 0.251605 0.258781 0.222785 0.262064 0.225034 0.248553 0.216582 0.251605 0.218597 0.222785 0.195774 0.225034 0.197246 0.216582 0.19152 0.218597 0.192905 0.503761 0.383163 0.48135 0.373049 0.444746 0.355847 0.42871 0.347259 0.383163 0.311898 0.373049 0.30587 0.355847 0.29573 0.347259 0.290859 0.311898 0.262064 0.30587 0.258793 0.29573 0.251605 0.290859 0.248559 0.262064 0.225034 0.258793 0.22279 0.251605 0.218597 0.248559 0.216586 0.225034 0.197246 0.22279 0.195778 0.218597 0.192905 0.216586 0.191523 0.48135 0.373049 0.428633 0.347279 0.42871 0.347259 0.386882 0.323807 0.373049 0.30587 0.347279 0.290875 0.347259 0.290859 0.323807 0.277139 0.30587 0.258793 0.290875 0.248561 0.290859 0.248559 0.277139 0.240048 0.258793 0.22279 0.248561 0.216585 0.248559 0.216586 0.240048 0.210845 0.22279 0.195778 0.216585 0.191523 0.216586 0.191523 0.210845 0.187553 0.428633 0.347279 0.365881 0.312204 0.386882 0.323807 0.340127 0.295941 0.347279 0.290875 0.312204 0.269261 0.323807 0.277139 0.295941 0.258434 0.290875 0.248561 0.269261 0.234794 0.277139 0.240048 0.258434 0.227567 0.248561 0.216585 0.234794 0.207243 0.240048 0.210845 0.227567 0.202232 0.216585 0.191523 0.207243 0.185012 0.210845 0.187553 0.202232 0.181423 0.431343 0.480721 0.346545 0.374209 0.389166 0.42926 0.325179 0.34687 0.480721 0.498987 0.374209 0.384644 0.42926 0.446169 0.34687 0.355703 0.498987 0.480301 0.384644 0.374313 0.446169 0.429188 0.355703 0.347165 0.480301 0.428951 0.374313 0.347143 0.429188 0.386909 0.347165 0.323857 0.428951 0.365881 0.347143 0.312265 0.386909 0.340127 0.323857 0.295951 0.365881 0.312204 0.312265 0.27748 0.340127 0.295941 0.295951 0.265797 0.312204 0.269261 0.27748 0.245912 0.295941 0.258434 0.265797 0.237682 0.269261 0.234794 0.245912 0.218845 0.258434 0.227567 0.237682 0.212962 0.234794 0.207243 0.218845 0.195987 0.227567 0.202232 0.212962 0.191731 0.207243 0.185012 0.195987 0.176867 0.202232 0.181423 0.191731 0.173726 0.346545 0.374209 0.287974 0.305557 0.325179 0.34687 0.275347 0.289073 0.374209 0.384644 0.305557 0.311691 0.34687 0.355703 0.289073 0.295307 0.384644 0.374313 0.311691 0.306037 0.355703 0.347165 0.295307 0.290468 0.374313 0.347143 0.306037 0.290482 0.347165 0.323857 0.290468 0.27648 0.347143 0.312265 0.290482 0.26898 0.323857 0.295951 0.27648 0.25838 0.312265 0.27748 0.26898 0.245957 0.295951 0.265797 0.25838 0.237744 0.27748 0.245912 0.245957 0.223268 0.265797 0.237682 0.237744 0.217045 0.245912 0.218845 0.223268 0.202409 0.237682 0.212962 0.217045 0.197734 0.218845 0.195987 0.202409 0.183905 0.212962 0.191731 0.197734 0.180376 0.195987 0.176867 0.183905 0.167487 0.191731 0.173726 0.180376 0.164822 0.27534 0.289066 0.325169 0.346861 0.257397 0.26896 0.295745 0.31204 0.289066 0.295303 0.346861 0.355697 0.26896 0.27266 0.31204 0.318988 0.295303 0.29047 0.355697 0.347168 0.27266 0.268999 0.318988 0.312039 0.29047 0.276491 0.347168 0.32387 0.268999 0.258328 0.312039 0.295928 0.276491 0.258388 0.32387 0.295974 0.258328 0.24314 0.295928 0.273529 0.258388 0.237747 0.295974 0.265796 0.24314 0.225649 0.273529 0.249169 0.237747 0.21704 0.265796 0.237673 0.225649 0.207702 0.249169 0.225563 0.21704 0.197726 0.237673 0.212952 0.207702 0.190586 0.225563 0.204109 0.197726 0.180368 0.212952 0.191723 0.190586 0.174901 0.204109 0.185195 0.180368 0.164815 0.191723 0.173719 0.174901 0.160632 0.185195 0.168827 0.325169 0.346861 0.389155 0.429247 0.295745 0.31204 0.340933 0.365646 0.346861 0.355697 0.429247 0.446155 0.31204 0.318988 0.365646 0.376742 0.355697 0.347168 0.446155 0.4292 0.318988 0.312039 0.376742 0.365609 0.347168 0.32387 0.4292 0.386988 0.312039 0.295928 0.365609 0.340149 0.32387 0.295974 0.386988 0.34012 0.295928 0.273529 0.340149 0.307081 0.295974 0.265796 0.34012 0.295932 0.273529 0.249169 0.307081 0.273534 0.265796 0.237673 0.295932 0.258411 0.249169 0.225563 0.273534 0.243096 0.237673 0.212952 0.258411 0.227556 0.225563 0.204109 0.243096 0.21685 0.212952 0.191723 0.227556 0.202223 0.204109 0.185195 0.21685 0.194608 0.191723 0.173719 0.202223 0.181417 0.185195 0.168827 0.194608 0.175867 0.386988 0.34012 0.460068 0.387248 0.340149 0.307081 0.386903 0.34011 0.34012 0.295932 0.387248 0.323702 0.307081 0.273534 0.34011 0.295922 0.295932 0.258411 0.323702 0.277121 0.273534 0.243096 0.295922 0.258393 0.258411 0.227556 0.277121 0.240036 0.243096 0.21685 0.258393 0.22756 0.227556 0.202223 0.240036 0.210838 0.21685 0.194608 0.22756 0.202237 0.202223 0.181417 0.210838 0.187547 0.194608 0.175867 0.202237 0.181433 0.387248 0.323702 0.429475 0.347273 0.34011 0.295922 0.365481 0.311969 0.323702 0.277121 0.347273 0.290845 0.295922 0.258393 0.311969 0.269262 0.277121 0.240036 0.290845 0.248553 0.258393 0.22756 0.269262 0.234781 0.240036 0.210838 0.248553 0.216582 0.22756 0.202237 0.234781 0.207253 0.210838 0.187547 0.216582 0.19152 0.202237 0.181433 0.207253 0.185025 0.655729 0.717325 0.717955 0.814771 0.48072 0.498979 0.499013 0.529377 0.717325 0.654725 0.814771 0.716871 0.498979 0.480274 0.529377 0.498731 0.429475 0.347273 0.444746 0.355847 0.365481 0.311969 0.376663 0.318862 0.347273 0.290845 0.355847 0.29573 0.311969 0.269262 0.318862 0.273061 0.290845 0.248553 0.29573 0.251605 0.269262 0.234781 0.273061 0.237363 0.248553 0.216582 0.251605 0.218597 0.234781 0.207253 0.237363 0.209008 0.216582 0.19152 0.218597 0.192905 0.207253 0.185025 0.209008 0.186269 0.717955 0.814771 0.655736 0.717341 0.499013 0.529377 0.480723 0.498977 0.814771 0.716871 0.717341 0.654714 0.529377 0.498731 0.498977 0.48025 0.444746 0.355847 0.42871 0.347259 0.376663 0.318862 0.365483 0.311944 0.355847 0.29573 0.347259 0.290859 0.318862 0.273061 0.311944 0.269266 0.29573 0.251605 0.290859 0.248559 0.273061 0.237363 0.269266 0.234785 0.251605 0.218597 0.248559 0.216586 0.237363 0.209008 0.234785 0.207256 0.218597 0.192905 0.216586 0.191523 0.209008 0.186269 0.207256 0.185027 0.42871 0.347259 0.386882 0.323807 0.365483 0.311944 0.34006 0.295889 0.347259 0.290859 0.323807 0.277139 0.311944 0.269266 0.295889 0.2584 0.290859 0.248559 0.277139 0.240048 0.269266 0.234785 0.2584 0.227565 0.248559 0.216586 0.240048 0.210845 0.234785 0.207256 0.227565 0.202241 0.216586 0.191523 0.210845 0.187553 0.207256 0.185027 0.202241 0.181437 0.459912 0.386882 0.386909 0.340127 0.386832 0.34006 0.340113 0.307037 0.386882 0.323807 0.340127 0.295941 0.34006 0.295889 0.307037 0.273524 0.323807 0.277139 0.295941 0.258434 0.295889 0.2584 0.273524 0.2431 0.277139 0.240048 0.258434 0.227567 0.2584 0.227565 0.2431 0.216856 0.240048 0.210845 0.227567 0.202232 0.227565 0.202241 0.216856 0.194613 0.210845 0.187553 0.202232 0.181423 0.202241 0.181437 0.194613 0.175872 0.389166 0.42926 0.325179 0.34687 0.340937 0.365649 0.295749 0.312043 0.42926 0.446169 0.34687 0.355703 0.365649 0.376741 0.312043 0.318987 0.446169 0.429188 0.355703 0.347165 0.376741 0.365589 0.318987 0.31203 0.429188 0.386909 0.347165 0.323857 0.365589 0.340113 0.31203 0.295911 0.386909 0.340127 0.323857 0.295951 0.340113 0.307037 0.295911 0.273518 0.340127 0.295941 0.295951 0.265797 0.307037 0.273524 0.273518 0.249164 0.295941 0.258434 0.265797 0.237682 0.273524 0.2431 0.249164 0.225565 0.258434 0.227567 0.237682 0.212962 0.2431 0.216856 0.225565 0.204114 0.227567 0.202232 0.212962 0.191731 0.216856 0.194613 0.204114 0.1852 0.202232 0.181423 0.191731 0.173726 0.194613 0.175872 0.1852 0.168832 0.325179 0.34687 0.275347 0.289073 0.295749 0.312043 0.2574 0.268963 0.34687 0.355703 0.289073 0.295307 0.312043 0.318987 0.268963 0.272659 0.355703 0.347165 0.295307 0.290468 0.318987 0.31203 0.272659 0.268993 0.347165 0.323857 0.290468 0.27648 0.31203 0.295911 0.268993 0.258318 0.323857 0.295951 0.27648 0.25838 0.295911 0.273518 0.258318 0.24313 0.295951 0.265797 0.25838 0.237744 0.273518 0.249164 0.24313 0.225645 0.265797 0.237682 0.237744 0.217045 0.249164 0.225565 0.225645 0.207704 0.237682 0.212962 0.217045 0.197734 0.225565 0.204114 0.207704 0.19059 0.212962 0.191731 0.197734 0.180376 0.204114 0.1852 0.19059 0.174906 0.191731 0.173726 0.180376 0.164822 0.1852 0.168832 0.174906 0.160637 0.257397 0.26896 0.295745 0.31204 0.236924 0.245706 0.265529 0.277242 0.26896 0.27266 0.31204 0.318988 0.245706 0.248786 0.277242 0.281579 0.27266 0.268999 0.318988 0.312039 0.248786 0.245843 0.281579 0.277378 0.268999 0.258328 0.312039 0.295928 0.245843 0.237657 0.277378 0.265693 0.258328 0.24314 0.295928 0.273529 0.237657 0.225604 0.265693 0.249131 0.24314 0.225649 0.273529 0.249169 0.225604 0.211358 0.249131 0.230289 0.225649 0.207702 0.249169 0.225563 0.211358 0.196391 0.230289 0.211286 0.207702 0.190586 0.225563 0.204109 0.196391 0.18174 0.211286 0.193357 0.190586 0.174901 0.204109 0.185195 0.18174 0.167996 0.193357 0.177057 0.174901 0.160632 0.185195 0.168827 0.167996 0.155256 0.177057 0.162602 0.295745 0.31204 0.340933 0.365646 0.265529 0.277242 0.29559 0.311916 0.31204 0.318988 0.365646 0.376742 0.277242 0.281579 0.311916 0.318817 0.318988 0.312039 0.376742 0.365609 0.281579 0.277378 0.318817 0.311852 0.312039 0.295928 0.365609 0.340149 0.277378 0.265693 0.311852 0.295836 0.295928 0.273529 0.340149 0.307081 0.265693 0.249131 0.295836 0.273479 0.273529 0.249169 0.307081 0.273534 0.249131 0.230289 0.273479 0.249114 0.249169 0.225563 0.273534 0.243096 0.230289 0.211286 0.249114 0.22552 0.225563 0.204109 0.243096 0.21685 0.211286 0.193357 0.22552 0.204093 0.204109 0.185195 0.21685 0.194608 0.193357 0.177057 0.204093 0.185232 0.185195 0.168827 0.194608 0.175867 0.177057 0.162602 0.185232 0.168868 0.340933 0.365646 0.38923 0.429319 0.29559 0.311916 0.324694 0.347134 0.365646 0.376742 0.429319 0.44613 0.311916 0.318817 0.347134 0.355581 0.376742 0.365609 0.44613 0.429148 0.318817 0.311852 0.355581 0.347014 0.365609 0.340149 0.429148 0.386903 0.311852 0.295836 0.347014 0.323547 0.340149 0.307081 0.386903 0.34011 0.295836 0.273479 0.323547 0.295825 0.307081 0.273534 0.34011 0.295922 0.273479 0.249114 0.295825 0.265689 0.273534 0.243096 0.295922 0.258393 0.249114 0.22552 0.265689 0.237617 0.243096 0.21685 0.258393 0.22756 0.22552 0.204093 0.237617 0.212939 0.21685 0.194608 0.22756 0.202237 0.204093 0.185232 0.212939 0.191779 0.194608 0.175867 0.202237 0.181433 0.185232 0.168868 0.191779 0.173781 0.38923 0.429319 0.431269 0.48072 0.324694 0.347134 0.346631 0.374248 0.429319 0.44613 0.48072 0.498979 0.347134 0.355581 0.374248 0.384533 0.44613 0.429148 0.498979 0.480274 0.355581 0.347014 0.384533 0.374166 0.429148 0.386903 0.480274 0.42902 0.347014 0.323547 0.374166 0.346977 0.386903 0.34011 0.42902 0.365481 0.323547 0.295825 0.346977 0.311836 0.34011 0.295922 0.365481 0.311969 0.295825 0.265689 0.311836 0.277399 0.295922 0.258393 0.311969 0.269262 0.265689 0.237617 0.277399 0.245849 0.258393 0.22756 0.269262 0.234781 0.237617 0.212939 0.245849 0.218825 0.22756 0.202237 0.234781 0.207253 0.212939 0.191779 0.218825 0.196044 0.202237 0.181433 0.207253 0.185025 0.191779 0.173781 0.196044 0.17693 0.431269 0.48072 0.449352 0.499013 0.346631 0.374248 0.354919 0.384538 0.48072 0.498979 0.499013 0.529377 0.374248 0.384533 0.384538 0.396187 0.498979 0.480274 0.529377 0.498731 0.384533 0.374166 0.396187 0.38447 0.480274 0.42902 0.498731 0.445703 0.374166 0.346977 0.38447 0.355501 0.42902 0.365481 0.445703 0.376663 0.346977 0.311836 0.355501 0.318737 0.365481 0.311969 0.376663 0.318862 0.311836 0.277399 0.318737 0.281641 0.311969 0.269262 0.318862 0.273061 0.277399 0.245849 0.281641 0.248818 0.269262 0.234781 0.273061 0.237363 0.245849 0.218825 0.248818 0.22089 0.234781 0.207253 0.237363 0.209008 0.218825 0.196044 0.22089 0.197529 0.207253 0.185025 0.209008 0.186269 0.196044 0.17693 0.197529 0.178016 0.449352 0.499013 0.431271 0.480723 0.354919 0.384538 0.346631 0.374247 0.499013 0.529377 0.480723 0.498977 0.384538 0.396187 0.374247 0.384529 0.529377 0.498731 0.498977 0.48025 0.396187 0.38447 0.384529 0.374154 0.498731 0.445703 0.48025 0.428936 0.38447 0.355501 0.374154 0.346959 0.445703 0.376663 0.428936 0.365483 0.355501 0.318737 0.346959 0.31182 0.376663 0.318862 0.365483 0.311944 0.318737 0.281641 0.31182 0.277392 0.318862 0.273061 0.311944 0.269266 0.281641 0.248818 0.277392 0.245846 0.273061 0.237363 0.269266 0.234785 0.248818 0.22089 0.245846 0.218825 0.237363 0.209008 0.234785 0.207256 0.22089 0.197529 0.218825 0.196045 0.209008 0.186269 0.207256 0.185027 0.197529 0.178016 0.196045 0.176931 0.431271 0.480723 0.389235 0.429323 0.346631 0.374247 0.324695 0.347133 0.480723 0.498977 0.429323 0.446129 0.374247 0.384529 0.347133 0.355576 0.498977 0.48025 0.446129 0.429121 0.384529 0.374154 0.355576 0.346999 0.48025 0.428936 0.429121 0.386832 0.