<?xml version="1.0" ?> 
<!-- 
# vtk DataFile Version 3.0
#This file was generated by the deal.II library on 16:48:41 at 2019/11/27
-->
<VTKFile type="UnstructuredGrid" version="0.1" byte_order="LittleEndian">
<UnstructuredGrid>
<Piece NumberOfPoints="9568" NumberOfCells="1196" >
  <Points>
    <DataArray type="Float32" NumberOfComponents="3" format="ascii">
-50 -50 0
-40 -50 0
-50 -40 0
-40 -40 0
-50 -50 10
-40 -50 10
-50 -40 10
-40 -40 10
-40 -50 0
-30 -50 0
-40 -40 0
-30 -40 0
-40 -50 10
-30 -50 10
-40 -40 10
-30 -40 10
-30 -50 0
-20 -50 0
-30 -40 0
-20 -40 0
-30 -50 10
-20 -50 10
-30 -40 10
-20 -40 10
-20 -50 0
-10 -50 0
-20 -40 0
-10 -40 0
-20 -50 10
-10 -50 10
-20 -40 10
-10 -40 10
-10 -50 0
0 -50 0
-10 -40 0
0 -40 0
-10 -50 10
0 -50 10
-10 -40 10
0 -40 10
0 -50 0
10 -50 0
0 -40 0
10 -40 0
0 -50 10
10 -50 10
0 -40 10
10 -40 10
10 -50 0
20 -50 0
10 -40 0
20 -40 0
10 -50 10
20 -50 10
10 -40 10
20 -40 10
20 -50 0
30 -50 0
20 -40 0
30 -40 0
20 -50 10
30 -50 10
20 -40 10
30 -40 10
30 -50 0
40 -50 0
30 -40 0
40 -40 0
30 -50 10
40 -50 10
30 -40 10
40 -40 10
40 -50 0
50 -50 0
40 -40 0
50 -40 0
40 -50 10
50 -50 10
40 -40 10
50 -40 10
-50 -40 0
-40 -40 0
-50 -30 0
-40 -30 0
-50 -40 10
-40 -40 10
-50 -30 10
-40 -30 10
-40 -40 0
-30 -40 0
-40 -30 0
-30 -30 0
-40 -40 10
-30 -40 10
-40 -30 10
-30 -30 10
-30 -40 0
-20 -40 0
-30 -30 0
-20 -30 0
-30 -40 10
-20 -40 10
-30 -30 10
-20 -30 10
-20 -40 0
-10 -40 0
-20 -30 0
-10 -30 0
-20 -40 10
-10 -40 10
-20 -30 10
-10 -30 10
-10 -40 0
0 -40 0
-10 -30 0
0 -30 0
-10 -40 10
0 -40 10
-10 -30 10
0 -30 10
0 -40 0
10 -40 0
0 -30 0
10 -30 0
0 -40 10
10 -40 10
0 -30 10
10 -30 10
10 -40 0
20 -40 0
10 -30 0
20 -30 0
10 -40 10
20 -40 10
10 -30 10
20 -30 10
20 -40 0
30 -40 0
20 -30 0
30 -30 0
20 -40 10
30 -40 10
20 -30 10
30 -30 10
30 -40 0
40 -40 0
30 -30 0
40 -30 0
30 -40 10
40 -40 10
30 -30 10
40 -30 10
40 -40 0
50 -40 0
40 -30 0
50 -30 0
40 -40 10
50 -40 10
40 -30 10
50 -30 10
-50 -30 0
-40 -30 0
-50 -20 0
-40 -20 0
-50 -30 10
-40 -30 10
-50 -20 10
-40 -20 10
-40 -30 0
-30 -30 0
-40 -20 0
-30 -20 0
-40 -30 10
-30 -30 10
-40 -20 10
-30 -20 10
-30 -30 0
-20 -30 0
-30 -20 0
-20 -20 0
-30 -30 10
-20 -30 10
-30 -20 10
-20 -20 10
-20 -30 0
-10 -30 0
-20 -20 0
-10 -20 0
-20 -30 10
-10 -30 10
-20 -20 10
-10 -20 10
-10 -30 0
0 -30 0
-10 -20 0
0 -20 0
-10 -30 10
0 -30 10
-10 -20 10
0 -20 10
0 -30 0
10 -30 0
0 -20 0
10 -20 0
0 -30 10
10 -30 10
0 -20 10
10 -20 10
10 -30 0
20 -30 0
10 -20 0
20 -20 0
10 -30 10
20 -30 10
10 -20 10
20 -20 10
20 -30 0
30 -30 0
20 -20 0
30 -20 0
20 -30 10
30 -30 10
20 -20 10
30 -20 10
30 -30 0
40 -30 0
30 -20 0
40 -20 0
30 -30 10
40 -30 10
30 -20 10
40 -20 10
40 -30 0
50 -30 0
40 -20 0
50 -20 0
40 -30 10
50 -30 10
40 -20 10
50 -20 10
-50 -20 0
-40 -20 0
-50 -10 0
-40 -10 0
-50 -20 10
-40 -20 10
-50 -10 10
-40 -10 10
-40 -20 0
-30 -20 0
-40 -10 0
-30 -10 0
-40 -20 10
-30 -20 10
-40 -10 10
-30 -10 10
-30 -20 0
-20 -20 0
-30 -10 0
-20 -10 0
-30 -20 10
-20 -20 10
-30 -10 10
-20 -10 10
-20 -20 0
-10 -20 0
-20 -10 0
-10 -10 0
-20 -20 10
-10 -20 10
-20 -10 10
-10 -10 10
-10 -20 0
0 -20 0
-10 -10 0
0 -10 0
-10 -20 10
0 -20 10
-10 -10 10
0 -10 10
0 -20 0
10 -20 0
0 -10 0
10 -10 0
0 -20 10
10 -20 10
0 -10 10
10 -10 10
10 -20 0
20 -20 0
10 -10 0
20 -10 0
10 -20 10
20 -20 10
10 -10 10
20 -10 10
20 -20 0
30 -20 0
20 -10 0
30 -10 0
20 -20 10
30 -20 10
20 -10 10
30 -10 10
30 -20 0
40 -20 0
30 -10 0
40 -10 0
30 -20 10
40 -20 10
30 -10 10
40 -10 10
40 -20 0
50 -20 0
40 -10 0
50 -10 0
40 -20 10
50 -20 10
40 -10 10
50 -10 10
-50 -10 0
-40 -10 0
-50 0 0
-40 0 0
-50 -10 10
-40 -10 10
-50 0 10
-40 0 10
20 -10 0
30 -10 0
20 0 0
30 0 0
20 -10 10
30 -10 10
20 0 10
30 0 10
30 -10 0
40 -10 0
30 0 0
40 0 0
30 -10 10
40 -10 10
30 0 10
40 0 10
40 -10 0
50 -10 0
40 0 0
50 0 0
40 -10 10
50 -10 10
40 0 10
50 0 10
-50 0 0
-40 0 0
-50 10 0
-40 10 0
-50 0 10
-40 0 10
-50 10 10
-40 10 10
20 0 0
30 0 0
20 10 0
30 10 0
20 0 10
30 0 10
20 10 10
30 10 10
30 0 0
40 0 0
30 10 0
40 10 0
30 0 10
40 0 10
30 10 10
40 10 10
40 0 0
50 0 0
40 10 0
50 10 0
40 0 10
50 0 10
40 10 10
50 10 10
-50 10 0
-40 10 0
-50 20 0
-40 20 0
-50 10 10
-40 10 10
-50 20 10
-40 20 10
-40 10 0
-30 10 0
-40 20 0
-30 20 0
-40 10 10
-30 10 10
-40 20 10
-30 20 10
-30 10 0
-20 10 0
-30 20 0
-20 20 0
-30 10 10
-20 10 10
-30 20 10
-20 20 10
-20 10 0
-10 10 0
-20 20 0
-10 20 0
-20 10 10
-10 10 10
-20 20 10
-10 20 10
-10 10 0
0 10 0
-10 20 0
0 20 0
-10 10 10
0 10 10
-10 20 10
0 20 10
0 10 0
10 10 0
0 20 0
10 20 0
0 10 10
10 10 10
0 20 10
10 20 10
10 10 0
20 10 0
10 20 0
20 20 0
10 10 10
20 10 10
10 20 10
20 20 10
20 10 0
30 10 0
20 20 0
30 20 0
20 10 10
30 10 10
20 20 10
30 20 10
30 10 0
40 10 0
30 20 0
40 20 0
30 10 10
40 10 10
30 20 10
40 20 10
40 10 0
50 10 0
40 20 0
50 20 0
40 10 10
50 10 10
40 20 10
50 20 10
-50 20 0
-40 20 0
-50 30 0
-40 30 0
-50 20 10
-40 20 10
-50 30 10
-40 30 10
-40 20 0
-30 20 0
-40 30 0
-30 30 0
-40 20 10
-30 20 10
-40 30 10
-30 30 10
-30 20 0
-20 20 0
-30 30 0
-20 30 0
-30 20 10
-20 20 10
-30 30 10
-20 30 10
-20 20 0
-10 20 0
-20 30 0
-10 30 0
-20 20 10
-10 20 10
-20 30 10
-10 30 10
-10 20 0
0 20 0
-10 30 0
0 30 0
-10 20 10
0 20 10
-10 30 10
0 30 10
0 20 0
10 20 0
0 30 0
10 30 0
0 20 10
10 20 10
0 30 10
10 30 10
10 20 0
20 20 0
10 30 0
20 30 0
10 20 10
20 20 10
10 30 10
20 30 10
20 20 0
30 20 0
20 30 0
30 30 0
20 20 10
30 20 10
20 30 10
30 30 10
30 20 0
40 20 0
30 30 0
40 30 0
30 20 10
40 20 10
30 30 10
40 30 10
40 20 0
50 20 0
40 30 0
50 30 0
40 20 10
50 20 10
40 30 10
50 30 10
-50 30 0
-40 30 0
-50 40 0
-40 40 0
-50 30 10
-40 30 10
-50 40 10
-40 40 10
-40 30 0
-30 30 0
-40 40 0
-30 40 0
-40 30 10
-30 30 10
-40 40 10
-30 40 10
-30 30 0
-20 30 0
-30 40 0
-20 40 0
-30 30 10
-20 30 10
-30 40 10
-20 40 10
-20 30 0
-10 30 0
-20 40 0
-10 40 0
-20 30 10
-10 30 10
-20 40 10
-10 40 10
-10 30 0
0 30 0
-10 40 0
0 40 0
-10 30 10
0 30 10
-10 40 10
0 40 10
0 30 0
10 30 0
0 40 0
10 40 0
0 30 10
10 30 10
0 40 10
10 40 10
10 30 0
20 30 0
10 40 0
20 40 0
10 30 10
20 30 10
10 40 10
20 40 10
20 30 0
30 30 0
20 40 0
30 40 0
20 30 10
30 30 10
20 40 10
30 40 10
30 30 0
40 30 0
30 40 0
40 40 0
30 30 10
40 30 10
30 40 10
40 40 10
40 30 0
50 30 0
40 40 0
50 40 0
40 30 10
50 30 10
40 40 10
50 40 10
-50 40 0
-40 40 0
-50 50 0
-40 50 0
-50 40 10
-40 40 10
-50 50 10
-40 50 10
-40 40 0
-30 40 0
-40 50 0
-30 50 0
-40 40 10
-30 40 10
-40 50 10
-30 50 10
-30 40 0
-20 40 0
-30 50 0
-20 50 0
-30 40 10
-20 40 10
-30 50 10
-20 50 10
-20 40 0
-10 40 0
-20 50 0
-10 50 0
-20 40 10
-10 40 10
-20 50 10
-10 50 10
-10 40 0
0 40 0
-10 50 0
0 50 0
-10 40 10
0 40 10
-10 50 10
0 50 10
0 40 0
10 40 0
0 50 0
10 50 0
0 40 10
10 40 10
0 50 10
10 50 10
10 40 0
20 40 0
10 50 0
20 50 0
10 40 10
20 40 10
10 50 10
20 50 10
20 40 0
30 40 0
20 50 0
30 50 0
20 40 10
30 40 10
20 50 10
30 50 10
30 40 0
40 40 0
30 50 0
40 50 0
30 40 10
40 40 10
30 50 10
40 50 10
40 40 0
50 40 0
40 50 0
50 50 0
40 40 10
50 40 10
40 50 10
50 50 10
-50 -50 10
-40 -50 10
-50 -40 10
-40 -40 10
-50 -50 20
-40 -50 20
-50 -40 20
-40 -40 20
-40 -50 10
-30 -50 10
-40 -40 10
-30 -40 10
-40 -50 20
-30 -50 20
-40 -40 20
-30 -40 20
-30 -50 10
-20 -50 10
-30 -40 10
-20 -40 10
-30 -50 20
-20 -50 20
-30 -40 20
-20 -40 20
-20 -50 10
-10 -50 10
-20 -40 10
-10 -40 10
-20 -50 20
-10 -50 20
-20 -40 20
-10 -40 20
-10 -50 10
0 -50 10
-10 -40 10
0 -40 10
-10 -50 20
0 -50 20
-10 -40 20
0 -40 20
0 -50 10
10 -50 10
0 -40 10
10 -40 10
0 -50 20
10 -50 20
0 -40 20
10 -40 20
10 -50 10
20 -50 10
10 -40 10
20 -40 10
10 -50 20
20 -50 20
10 -40 20
20 -40 20
20 -50 10
30 -50 10
20 -40 10
30 -40 10
20 -50 20
30 -50 20
20 -40 20
30 -40 20
30 -50 10
40 -50 10
30 -40 10
40 -40 10
30 -50 20
40 -50 20
30 -40 20
40 -40 20
40 -50 10
50 -50 10
40 -40 10
50 -40 10
40 -50 20
50 -50 20
40 -40 20
50 -40 20
-50 -40 10
-40 -40 10
-50 -30 10
-40 -30 10
-50 -40 20
-40 -40 20
-50 -30 20
-40 -30 20
-40 -40 10
-30 -40 10
-40 -30 10
-30 -30 10
-40 -40 20
-30 -40 20
-40 -30 20
-30 -30 20
-30 -40 10
-20 -40 10
-30 -30 10
-20 -30 10
-30 -40 20
-20 -40 20
-30 -30 20
-20 -30 20
-20 -40 10
-10 -40 10
-20 -30 10
-10 -30 10
-20 -40 20
-10 -40 20
-20 -30 20
-10 -30 20
-10 -40 10
0 -40 10
-10 -30 10
0 -30 10
-10 -40 20
0 -40 20
-10 -30 20
0 -30 20
0 -40 10
10 -40 10
0 -30 10
10 -30 10
0 -40 20
10 -40 20
0 -30 20
10 -30 20
10 -40 10
20 -40 10
10 -30 10
20 -30 10
10 -40 20
20 -40 20
10 -30 20
20 -30 20
20 -40 10
30 -40 10
20 -30 10
30 -30 10
20 -40 20
30 -40 20
20 -30 20
30 -30 20
30 -40 10
40 -40 10
30 -30 10
40 -30 10
30 -40 20
40 -40 20
30 -30 20
40 -30 20
40 -40 10
50 -40 10
40 -30 10
50 -30 10
40 -40 20
50 -40 20
40 -30 20
50 -30 20
-50 -30 10
-40 -30 10
-50 -20 10
-40 -20 10
-50 -30 20
-40 -30 20
-50 -20 20
-40 -20 20
-40 -30 10
-30 -30 10
-40 -20 10
-30 -20 10
-40 -30 20
-30 -30 20
-40 -20 20
-30 -20 20
-30 -30 10
-20 -30 10
-30 -20 10
-20 -20 10
-30 -30 20
-20 -30 20
-30 -20 20
-20 -20 20
-20 -30 10
-10 -30 10
-20 -20 10
-10 -20 10
-20 -30 20
-10 -30 20
-20 -20 20
-10 -20 20
-10 -30 10
0 -30 10
-10 -20 10
0 -20 10
-10 -30 20
0 -30 20
-10 -20 20
0 -20 20
0 -30 10
10 -30 10
0 -20 10
10 -20 10
0 -30 20
10 -30 20
0 -20 20
10 -20 20
10 -30 10
20 -30 10
10 -20 10
20 -20 10
10 -30 20
20 -30 20
10 -20 20
20 -20 20
20 -30 10
30 -30 10
20 -20 10
30 -20 10
20 -30 20
30 -30 20
20 -20 20
30 -20 20
30 -30 10
40 -30 10
30 -20 10
40 -20 10
30 -30 20
40 -30 20
30 -20 20
40 -20 20
40 -30 10
50 -30 10
40 -20 10
50 -20 10
40 -30 20
50 -30 20
40 -20 20
50 -20 20
-50 -20 10
-40 -20 10
-50 -10 10
-40 -10 10
-50 -20 20
-40 -20 20
-50 -10 20
-40 -10 20
-40 -20 10
-30 -20 10
-40 -10 10
-30 -10 10
-40 -20 20
-30 -20 20
-40 -10 20
-30 -10 20
-30 -20 10
-20 -20 10
-30 -10 10
-20 -10 10
-30 -20 20
-20 -20 20
-30 -10 20
-20 -10 20
-20 -20 10
-10 -20 10
-20 -10 10
-10 -10 10
-20 -20 20
-10 -20 20
-20 -10 20
-10 -10 20
-10 -20 10
0 -20 10
-10 -10 10
0 -10 10
-10 -20 20
0 -20 20
-10 -10 20
0 -10 20
0 -20 10
10 -20 10
0 -10 10
10 -10 10
0 -20 20
10 -20 20
0 -10 20
10 -10 20
10 -20 10
20 -20 10
10 -10 10
20 -10 10
10 -20 20
20 -20 20
10 -10 20
20 -10 20
20 -20 10
30 -20 10
20 -10 10
30 -10 10
[...]
  <PointData Scalars="scalars">
    <DataArray type="Float32" Name="u" format="ascii">
0.292043 0.309118 0.35421 0.382434 0.287838 0.304095 0.346548 0.372928 0.309118 0.314863 0.382434 0.392897 0.304095 0.309573 0.372928 0.38275 0.314863 0.309648 0.392897 0.382662 0.309573 0.304567 0.38275 0.373093 0.309648 0.294926 0.382662 0.355463 0.304567 0.290405 0.373093 0.347535 0.294926 0.273743 0.355463 0.319571 0.290405 0.270006 0.347535 0.31363 0.273743 0.249814 0.319571 0.282793 0.270006 0.246908 0.31363 0.278579 0.249814 0.22619 0.282793 0.249632 0.246908 0.224004 0.278579 0.246711 0.22619 0.204572 0.249632 0.221425 0.224004 0.202947 0.246711 0.219372 0.204572 0.185521 0.221425 0.19784 0.202947 0.184305 0.219372 0.19637 0.185521 0.168734 0.19784 0.178263 0.184305 0.167824 0.19637 0.177188 0.35421 0.382434 0.443285 0.498766 0.346548 0.372928 0.428937 0.47873 0.382434 0.392897 0.498766 0.520348 0.372928 0.38275 0.47873 0.497804 0.392897 0.382662 0.520348 0.497172 0.38275 0.373093 0.497804 0.477462 0.382662 0.355463 0.497172 0.442424 0.373093 0.347535 0.477462 0.427629 0.355463 0.319571 0.442424 0.377558 0.347535 0.31363 0.427629 0.367744 0.319571 0.282793 0.377558 0.319637 0.31363 0.278579 0.367744 0.313674 0.282793 0.249632 0.319637 0.273701 0.278579 0.246711 0.313674 0.269889 0.249632 0.221425 0.273701 0.237693 0.246711 0.219372 0.269889 0.235176 0.221425 0.19784 0.237693 0.209255 0.219372 0.19637 0.235176 0.207526 0.19784 0.178263 0.209255 0.186468 0.19637 0.177188 0.207526 0.185244 0.443285 0.498766 0.58001 0.707966 0.428937 0.47873 0.545227 0.658313 0.498766 0.520348 0.707966 0.75711 0.47873 0.497804 0.658313 0.705538 0.520348 0.497172 0.75711 0.7047 0.497804 0.477462 0.705538 0.654517 0.497172 0.442424 0.7047 0.569848 0.477462 0.427629 0.654517 0.537523 0.442424 0.377558 0.569848 0.442401 0.427629 0.367744 0.537523 0.427678 0.377558 0.319637 0.442401 0.356046 0.367744 0.313674 0.427678 0.347915 0.319637 0.273701 0.356046 0.295506 0.313674 0.269889 0.347915 0.290809 0.273701 0.237693 0.295506 0.25166 0.269889 0.235176 0.290809 0.248686 0.237693 0.209255 0.25166 0.218618 0.235176 0.207526 0.248686 0.216655 0.209255 0.186468 0.218618 0.192973 0.207526 0.185244 0.216655 0.191626 0.58001 0.707966 0.709279 1.1651 0.545227 0.658313 0.664594 0.951984 0.707966 0.75711 1.1651 1.53491 0.658313 0.705538 0.951984 1.16534 0.75711 0.7047 1.53491 1.14663 0.705538 0.654517 1.16534 0.945956 0.7047 0.569848 1.14663 0.699925 0.654517 0.537523 0.945956 0.65386 0.569848 0.442401 0.699925 0.49917 0.537523 0.427678 0.65386 0.478508 0.442401 0.356046 0.49917 0.383681 0.427678 0.347915 0.478508 0.374205 0.356046 0.295506 0.383681 0.311574 0.347915 0.290809 0.374205 0.305866 0.295506 0.25166 0.311574 0.261337 0.290809 0.248686 0.305866 0.257974 0.25166 0.218618 0.261337 0.22482 0.248686 0.216655 0.257974 0.222699 0.218618 0.192973 0.22482 0.197178 0.216655 0.191626 0.222699 0.195745 0.709279 1.1651 0.746145 1.53243 0.664594 0.951984 0.709044 1.16584 0.311574 0.261337 0.319237 0.264661 0.305866 0.257974 0.311565 0.26133 0.261337 0.22482 0.264661 0.227017 0.257974 0.222699 0.26133 0.224815 0.22482 0.197178 0.227017 0.19863 0.222699 0.195745 0.224815 0.197173 0.746145 1.53243 0.709274 1.16518 0.709044 1.16584 0.664603 0.951962 0.319237 0.264661 0.311574 0.261337 0.311565 0.26133 0.305866 0.257974 0.264661 0.227017 0.261337 0.22482 0.26133 0.224815 0.257974 0.2227 0.227017 0.19863 0.22482 0.197178 0.224815 0.197173 0.2227 0.195745 0.709274 1.16518 0.580019 0.707972 0.664603 0.951962 0.545229 0.658317 1.16518 1.5351 0.707972 0.757106 0.951962 1.16524 0.658317 0.705551 1.5351 1.14675 0.757106 0.704702 1.16524 0.945905 0.705551 0.654524 1.14675 0.69992 0.704702 0.569855 0.945905 0.653872 0.654524 0.537523 0.69992 0.499173 0.569855 0.442401 0.653872 0.478508 0.537523 0.42768 0.499173 0.383681 0.442401 0.356047 0.478508 0.374205 0.42768 0.347915 0.383681 0.311574 0.356047 0.295506 0.374205 0.305866 0.347915 0.290809 0.311574 0.261337 0.295506 0.25166 0.305866 0.257974 0.290809 0.248686 0.261337 0.22482 0.25166 0.218618 0.257974 0.2227 0.248686 0.216655 0.22482 0.197178 0.218618 0.192973 0.2227 0.195745 0.216655 0.191626 0.580019 0.707972 0.443287 0.498768 0.545229 0.658317 0.428939 0.478732 0.707972 0.757106 0.498768 0.520352 0.658317 0.705551 0.478732 0.497805 0.757106 0.704702 0.520352 0.497174 0.705551 0.654524 0.497805 0.477463 0.704702 0.569855 0.497174 0.442425 0.654524 0.537523 0.477463 0.42763 0.569855 0.442401 0.442425 0.377559 0.537523 0.42768 0.42763 0.367744 0.442401 0.356047 0.377559 0.319637 0.42768 0.347915 0.367744 0.313674 0.356047 0.295506 0.319637 0.273701 0.347915 0.290809 0.313674 0.26989 0.295506 0.25166 0.273701 0.237693 0.290809 0.248686 0.26989 0.235176 0.25166 0.218618 0.237693 0.209255 0.248686 0.216655 0.235176 0.207526 0.218618 0.192973 0.209255 0.186468 0.216655 0.191626 0.207526 0.185244 0.443287 0.498768 0.354211 0.382435 0.428939 0.478732 0.346549 0.372929 0.498768 0.520352 0.382435 0.392898 0.478732 0.497805 0.372929 0.38275 0.520352 0.497174 0.392898 0.382663 0.497805 0.477463 0.38275 0.373093 0.497174 0.442425 0.382663 0.355464 0.477463 0.42763 0.373093 0.347535 0.442425 0.377559 0.355464 0.319572 0.42763 0.367744 0.347535 0.313631 0.377559 0.319637 0.319572 0.282793 0.367744 0.313674 0.313631 0.278579 0.319637 0.273701 0.282793 0.249632 0.313674 0.26989 0.278579 0.246712 0.273701 0.237693 0.249632 0.221425 0.26989 0.235176 0.246712 0.219372 0.237693 0.209255 0.221425 0.19784 0.235176 0.207526 0.219372 0.196371 0.209255 0.186468 0.19784 0.178263 0.207526 0.185244 0.196371 0.177188 0.354211 0.382435 0.292043 0.309118 0.346549 0.372929 0.287839 0.304096 0.382435 0.392898 0.309118 0.314863 0.372929 0.38275 0.304096 0.309573 0.392898 0.382663 0.314863 0.309649 0.38275 0.373093 0.309573 0.304567 0.382663 0.355464 0.309649 0.294926 0.373093 0.347535 0.304567 0.290405 0.355464 0.319572 0.294926 0.273744 0.347535 0.313631 0.290405 0.270007 0.319572 0.282793 0.273744 0.249814 0.313631 0.278579 0.270007 0.246909 0.282793 0.249632 0.249814 0.22619 0.278579 0.246712 0.246909 0.224004 0.249632 0.221425 0.22619 0.204572 0.246712 0.219372 0.224004 0.202947 0.221425 0.19784 0.204572 0.185521 0.219372 0.196371 0.202947 0.184305 0.19784 0.178263 0.185521 0.168734 0.196371 0.177188 0.184305 0.167824 0.287838 0.304095 0.346548 0.372928 0.275905 0.290054 0.32581 0.347484 0.304095 0.309573 0.372928 0.38275 0.290054 0.294848 0.347484 0.355588 0.309573 0.304567 0.38275 0.373093 0.294848 0.290387 0.355588 0.347591 0.304567 0.290405 0.373093 0.347535 0.290387 0.277773 0.347591 0.32626 0.290405 0.270006 0.347535 0.31363 0.277773 0.259541 0.32626 0.297408 0.270006 0.246908 0.31363 0.278579 0.259541 0.238704 0.297408 0.26692 0.246908 0.224004 0.278579 0.246711 0.238704 0.217783 0.26692 0.238483 0.224004 0.202947 0.246711 0.219372 0.217783 0.198278 0.238483 0.213518 0.202947 0.184305 0.219372 0.19637 0.198278 0.180789 0.213518 0.192139 0.184305 0.167824 0.19637 0.177188 0.180789 0.165172 0.192139 0.174068 0.346548 0.372928 0.428937 0.47873 0.32581 0.347484 0.390701 0.42873 0.372928 0.38275 0.47873 0.497804 0.347484 0.355588 0.42873 0.443049 0.38275 0.373093 0.497804 0.477462 0.355588 0.347591 0.443049 0.427847 0.373093 0.347535 0.477462 0.427629 0.347591 0.32626 0.427847 0.38939 0.347535 0.31363 0.427629 0.367744 0.32626 0.297408 0.38939 0.342168 0.31363 0.278579 0.367744 0.313674 0.297408 0.26692 0.342168 0.297382 0.278579 0.246711 0.313674 0.269889 0.26692 0.238483 0.297382 0.259288 0.246711 0.219372 0.269889 0.235176 0.238483 0.213518 0.259288 0.228042 0.219372 0.19637 0.235176 0.207526 0.213518 0.192139 0.228042 0.202568 0.19637 0.177188 0.207526 0.185244 0.192139 0.174068 0.202568 0.181703 0.428937 0.47873 0.545227 0.658313 0.390701 0.42873 0.469945 0.540583 0.47873 0.497804 0.658313 0.705538 0.42873 0.443049 0.540583 0.571973 0.497804 0.477462 0.705538 0.654517 0.443049 0.427847 0.571973 0.538457 0.477462 0.427629 0.654517 0.537523 0.427847 0.38939 0.538457 0.465723 0.427629 0.367744 0.537523 0.427678 0.38939 0.342168 0.465723 0.389423 0.367744 0.313674 0.427678 0.347915 0.342168 0.297382 0.389423 0.326377 0.313674 0.269889 0.347915 0.290809 0.297382 0.259288 0.326377 0.27777 0.269889 0.235176 0.290809 0.248686 0.259288 0.228042 0.27777 0.240332 0.235176 0.207526 0.248686 0.216655 0.228042 0.202568 0.240332 0.211052 0.207526 0.185244 0.216655 0.191626 0.202568 0.181703 0.211052 0.187733 0.545227 0.658313 0.664594 0.951984 0.469945 0.540583 0.545131 0.658455 0.658313 0.705538 0.951984 1.16534 0.540583 0.571973 0.658455 0.70578 0.705538 0.654517 1.16534 0.945956 0.571973 0.538457 0.70578 0.654655 0.654517 0.537523 0.945956 0.65386 0.538457 0.465723 0.654655 0.537548 0.537523 0.427678 0.65386 0.478508 0.465723 0.389423 0.537548 0.427658 0.427678 0.347915 0.478508 0.374205 0.389423 0.326377 0.427658 0.347883 0.347915 0.290809 0.374205 0.305866 0.326377 0.27777 0.347883 0.290779 0.290809 0.248686 0.305866 0.257974 0.27777 0.240332 0.290779 0.248666 0.248686 0.216655 0.257974 0.222699 0.240332 0.211052 0.248666 0.216644 0.216655 0.191626 0.222699 0.195745 0.211052 0.187733 0.216644 0.191616 0.664594 0.951984 0.709044 1.16584 0.545131 0.658455 0.579846 0.708163 0.951984 1.16534 1.16584 1.53734 0.658455 0.70578 0.708163 0.757274 1.16534 0.945956 1.53734 1.14725 0.70578 0.654655 0.757274 0.704912 0.945956 0.65386 1.14725 0.699908 0.654655 0.537548 0.704912 0.569904 0.65386 0.478508 0.699908 0.49917 0.537548 0.427658 0.569904 0.442376 0.478508 0.374205 0.49917 0.38367 0.427658 0.347883 0.442376 0.356006 0.374205 0.305866 0.38367 0.311565 0.347883 0.290779 0.356006 0.295467 0.305866 0.257974 0.311565 0.26133 0.290779 0.248666 0.295467 0.251633 0.257974 0.222699 0.26133 0.224815 0.248666 0.216644 0.251633 0.218603 0.222699 0.195745 0.224815 0.197173 0.216644 0.191616 0.218603 0.192958 0.709044 1.16584 0.664603 0.951962 0.579846 0.708163 0.545128 0.658448 1.16584 1.53734 0.951962 1.16524 0.708163 0.757274 0.658448 0.705775 1.53734 1.14725 1.16524 0.945905 0.757274 0.704912 0.705775 0.654649 1.14725 0.699908 0.945905 0.653872 0.704912 0.569904 0.654649 0.537544 0.699908 0.49917 0.653872 0.478508 0.569904 0.442376 0.537544 0.427659 0.49917 0.38367 0.478508 0.374205 0.442376 0.356006 0.427659 0.347883 0.38367 0.311565 0.374205 0.305866 0.356006 0.295467 0.347883 0.290779 0.311565 0.26133 0.305866 0.257974 0.295467 0.251633 0.290779 0.248666 0.26133 0.224815 0.257974 0.2227 0.251633 0.218603 0.248666 0.216644 0.224815 0.197173 0.2227 0.195745 0.218603 0.192958 0.216644 0.191616 0.664603 0.951962 0.545229 0.658317 0.545128 0.658448 0.469944 0.540578 0.951962 1.16524 0.658317 0.705551 0.658448 0.705775 0.540578 0.571963 1.16524 0.945905 0.705551 0.654524 0.705775 0.654649 0.571963 0.538451 0.945905 0.653872 0.654524 0.537523 0.654649 0.537544 0.538451 0.465722 0.653872 0.478508 0.537523 0.42768 0.537544 0.427659 0.465722 0.389423 0.478508 0.374205 0.42768 0.347915 0.427659 0.347883 0.389423 0.326377 0.374205 0.305866 0.347915 0.290809 0.347883 0.290779 0.326377 0.27777 0.305866 0.257974 0.290809 0.248686 0.290779 0.248666 0.27777 0.240332 0.257974 0.2227 0.248686 0.216655 0.248666 0.216644 0.240332 0.211052 0.2227 0.195745 0.216655 0.191626 0.216644 0.191616 0.211052 0.187733 0.545229 0.658317 0.428939 0.478732 0.469944 0.540578 0.390701 0.42873 0.658317 0.705551 0.478732 0.497805 0.540578 0.571963 0.42873 0.443049 0.705551 0.654524 0.497805 0.477463 0.571963 0.538451 0.443049 0.427847 0.654524 0.537523 0.477463 0.42763 0.538451 0.465722 0.427847 0.38939 0.537523 0.42768 0.42763 0.367744 0.465722 0.389423 0.38939 0.342168 0.42768 0.347915 0.367744 0.313674 0.389423 0.326377 0.342168 0.297382 0.347915 0.290809 0.313674 0.26989 0.326377 0.27777 0.297382 0.259288 0.290809 0.248686 0.26989 0.235176 0.27777 0.240332 0.259288 0.228042 0.248686 0.216655 0.235176 0.207526 0.240332 0.211052 0.228042 0.202568 0.216655 0.191626 0.207526 0.185244 0.211052 0.187733 0.202568 0.181703 0.428939 0.478732 0.346549 0.372929 0.390701 0.42873 0.32581 0.347485 0.478732 0.497805 0.372929 0.38275 0.42873 0.443049 0.347485 0.355588 0.497805 0.477463 0.38275 0.373093 0.443049 0.427847 0.355588 0.347591 0.477463 0.42763 0.373093 0.347535 0.427847 0.38939 0.347591 0.32626 0.42763 0.367744 0.347535 0.313631 0.38939 0.342168 0.32626 0.297408 0.367744 0.313674 0.313631 0.278579 0.342168 0.297382 0.297408 0.26692 0.313674 0.26989 0.278579 0.246712 0.297382 0.259288 0.26692 0.238483 0.26989 0.235176 0.246712 0.219372 0.259288 0.228042 0.238483 0.213518 0.235176 0.207526 0.219372 0.196371 0.228042 0.202568 0.213518 0.192139 0.207526 0.185244 0.196371 0.177188 0.202568 0.181703 0.192139 0.174068 0.346549 0.372929 0.287839 0.304096 0.32581 0.347485 0.275905 0.290054 0.372929 0.38275 0.304096 0.309573 0.347485 0.355588 0.290054 0.294848 0.38275 0.373093 0.309573 0.304567 0.355588 0.347591 0.294848 0.290387 0.373093 0.347535 0.304567 0.290405 0.347591 0.32626 0.290387 0.277773 0.347535 0.313631 0.290405 0.270007 0.32626 0.297408 0.277773 0.259541 0.313631 0.278579 0.270007 0.246909 0.297408 0.26692 0.259541 0.238704 0.278579 0.246712 0.246909 0.224004 0.26692 0.238483 0.238704 0.217783 0.246712 0.219372 0.224004 0.202947 0.238483 0.213518 0.217783 0.198278 0.219372 0.196371 0.202947 0.184305 0.213518 0.192139 0.198278 0.180789 0.196371 0.177188 0.184305 0.167824 0.192139 0.174068 0.180789 0.165172 0.275905 0.290054 0.32581 0.347484 0.258291 0.269708 0.297188 0.313526 0.290054 0.294848 0.347484 0.355588 0.269708 0.273616 0.313526 0.319582 0.294848 0.290387 0.355588 0.347591 0.273616 0.269934 0.319582 0.313623 0.290387 0.277773 0.347591 0.32626 0.269934 0.259497 0.313623 0.297382 0.277773 0.259541 0.32626 0.297408 0.259497 0.24425 0.297382 0.274851 0.259541 0.238704 0.297408 0.26692 0.24425 0.226546 0.274851 0.2502 0.238704 0.217783 0.26692 0.238483 0.226546 0.208405 0.2502 0.226331 0.217783 0.198278 0.238483 0.213518 0.208405 0.191123 0.226331 0.20467 0.198278 0.180789 0.213518 0.192139 0.191123 0.175324 0.20467 0.185623 0.180789 0.165172 0.192139 0.174068 0.175324 0.160997 0.185623 0.169191 0.32581 0.347484 0.390701 0.42873 0.297188 0.313526 0.342801 0.368267 0.347484 0.355588 0.42873 0.443049 0.313526 0.319582 0.368267 0.3779 0.355588 0.347591 0.443049 0.427847 0.319582 0.313623 0.3779 0.367882 0.347591 0.32626 0.427847 0.38939 0.313623 0.297382 0.367882 0.34217 0.32626 0.297408 0.38939 0.342168 0.297382 0.274851 0.34217 0.308783 0.297408 0.26692 0.342168 0.297382 0.274851 0.2502 0.308783 0.274773 0.26692 0.238483 0.297382 0.259288 0.2502 0.226331 0.274773 0.243934 0.238483 0.213518 0.259288 0.228042 0.226331 0.20467 0.243934 0.217393 0.213518 0.192139 0.228042 0.202568 0.20467 0.185623 0.217393 0.194998 0.192139 0.174068 0.202568 0.181703 0.185623 0.169191 0.194998 0.176196 0.390701 0.42873 0.469945 0.540583 0.342801 0.368267 0.390746 0.428809 0.42873 0.443049 0.540583 0.571973 0.368267 0.3779 0.428809 0.443122 0.443049 0.427847 0.571973 0.538457 0.3779 0.367882 0.443122 0.42787 0.427847 0.38939 0.538457 0.465723 0.367882 0.34217 0.42787 0.389363 0.38939 0.342168 0.465723 0.389423 0.34217 0.308783 0.389363 0.342106 0.342168 0.297382 0.389423 0.326377 0.308783 0.274773 0.342106 0.297308 0.297382 0.259288 0.326377 0.27777 0.274773 0.243934 0.297308 0.259227 0.259288 0.228042 0.27777 0.240332 0.243934 0.217393 0.259227 0.228009 0.228042 0.202568 0.240332 0.211052 0.217393 0.194998 0.228009 0.202559 0.202568 0.181703 0.211052 0.187733 0.194998 0.176196 0.202559 0.181702 0.469945 0.540583 0.545131 0.658455 0.390746 0.428809 0.42898 0.478887 0.540583 0.571973 0.658455 0.70578 0.428809 0.443122 0.478887 0.49796 0.571973 0.538457 0.70578 0.654655 0.443122 0.42787 0.49796 0.477551 0.538457 0.465723 0.654655 0.537548 0.42787 0.389363 0.477551 0.427627 0.465723 0.389423 0.537548 0.427658 0.389363 0.342106 0.427627 0.367668 0.389423 0.326377 0.427658 0.347883 0.342106 0.297308 0.367668 0.313571 0.326377 0.27777 0.347883 0.290779 0.297308 0.259227 0.313571 0.2698 0.27777 0.240332 0.290779 0.248666 0.259227 0.228009 0.2698 0.235124 0.240332 0.211052 0.248666 0.216644 0.228009 0.202559 0.235124 0.207508 0.211052 0.187733 0.216644 0.191616 0.202559 0.181702 0.207508 0.185236 0.545131 0.658455 0.579846 0.708163 0.42898 0.478887 0.443307 0.498953 0.658455 0.70578 0.708163 0.757274 0.478887 0.49796 0.498953 0.520564 0.70578 0.654655 0.757274 0.704912 0.49796 0.477551 0.520564 0.497289 0.654655 0.537548 0.704912 0.569904 0.477551 0.427627 0.497289 0.442437 0.537548 0.427658 0.569904 0.442376 0.427627 0.367668 0.442437 0.377484 0.427658 0.347883 0.442376 0.356006 0.367668 0.313571 0.377484 0.319527 0.347883 0.290779 0.356006 0.295467 0.313571 0.2698 0.319527 0.273603 0.290779 0.248666 0.295467 0.251633 0.2698 0.235124 0.273603 0.237636 0.248666 0.216644 0.251633 0.218603 0.235124 0.207508 0.237636 0.209234 0.216644 0.191616 0.218603 0.192958 0.207508 0.185236 0.209234 0.186456 0.579846 0.708163 0.545128 0.658448 0.443307 0.498953 0.428978 0.478886 0.708163 0.757274 0.658448 0.705775 0.498953 0.520564 0.478886 0.497958 0.757274 0.704912 0.705775 0.654649 0.520564 0.497289 0.497958 0.477549 0.704912 0.569904 0.654649 0.537544 0.497289 0.442437 0.477549 0.427626 0.569904 0.442376 0.537544 0.427659 0.442437 0.377484 0.427626 0.367668 0.442376 0.356006 0.427659 0.347883 0.377484 0.319527 0.367668 0.313571 0.356006 0.295467 0.347883 0.290779 0.319527 0.273603 0.313571 0.2698 0.295467 0.251633 0.290779 0.248666 0.273603 0.237636 0.2698 0.235124 0.251633 0.218603 0.248666 0.216644 0.237636 0.209234 0.235124 0.207508 0.218603 0.192958 0.216644 0.191616 0.209234 0.186456 0.207508 0.185236 0.545128 0.658448 0.469944 0.540578 0.428978 0.478886 0.390744 0.428807 0.658448 0.705775 0.540578 0.571963 0.478886 0.497958 0.428807 0.44312 0.705775 0.654649 0.571963 0.538451 0.497958 0.477549 0.44312 0.427869 0.654649 0.537544 0.538451 0.465722 0.477549 0.427626 0.427869 0.389362 0.537544 0.427659 0.465722 0.389423 0.427626 0.367668 0.389362 0.342105 0.427659 0.347883 0.389423 0.326377 0.367668 0.313571 0.342105 0.297308 0.347883 0.290779 0.326377 0.27777 0.313571 0.2698 0.297308 0.259227 0.290779 0.248666 0.27777 0.240332 0.2698 0.235124 0.259227 0.228009 0.248666 0.216644 0.240332 0.211052 0.235124 0.207508 0.228009 0.202559 0.216644 0.191616 0.211052 0.187733 0.207508 0.185236 0.202559 0.181702 0.469944 0.540578 0.390701 0.42873 0.390744 0.428807 0.3428 0.368266 0.540578 0.571963 0.42873 0.443049 0.428807 0.44312 0.368266 0.377899 0.571963 0.538451 0.443049 0.427847 0.44312 0.427869 0.377899 0.367881 0.538451 0.465722 0.427847 0.38939 0.427869 0.389362 0.367881 0.34217 0.465722 0.389423 0.38939 0.342168 0.389362 0.342105 0.34217 0.308782 0.389423 0.326377 0.342168 0.297382 0.342105 0.297308 0.308782 0.274773 0.326377 0.27777 0.297382 0.259288 0.297308 0.259227 0.274773 0.243934 0.27777 0.240332 0.259288 0.228042 0.259227 0.228009 0.243934 0.217393 0.240332 0.211052 0.228042 0.202568 0.228009 0.202559 0.217393 0.194998 0.211052 0.187733 0.202568 0.181703 0.202559 0.181702 0.194998 0.176196 0.390701 0.42873 0.32581 0.347485 0.3428 0.368266 0.297188 0.313525 0.42873 0.443049 0.347485 0.355588 0.368266 0.377899 0.313525 0.319582 0.443049 0.427847 0.355588 0.347591 0.377899 0.367881 0.319582 0.313623 0.427847 0.38939 0.347591 0.32626 0.367881 0.34217 0.313623 0.297382 0.38939 0.342168 0.32626 0.297408 0.34217 0.308782 0.297382 0.274851 0.342168 0.297382 0.297408 0.26692 0.308782 0.274773 0.274851 0.2502 0.297382 0.259288 0.26692 0.238483 0.274773 0.243934 0.2502 0.226331 0.259288 0.228042 0.238483 0.213518 0.243934 0.217393 0.226331 0.20467 0.228042 0.202568 0.213518 0.192139 0.217393 0.194998 0.20467 0.185623 0.202568 0.181703 0.192139 0.174068 0.194998 0.176196 0.185623 0.169191 0.32581 0.347485 0.275905 0.290054 0.297188 0.313525 0.258291 0.269707 0.347485 0.355588 0.290054 0.294848 0.313525 0.319582 0.269707 0.273616 0.355588 0.347591 0.294848 0.290387 0.319582 0.313623 0.273616 0.269934 0.347591 0.32626 0.290387 0.277773 0.31362