<?xml version="1.0" ?> 
<!-- 
# vtk DataFile Version 3.0
#This file was generated by the deal.II library on 16:48:50 at 2019/11/27
-->
<VTKFile type="UnstructuredGrid" version="0.1" byte_order="LittleEndian">
<UnstructuredGrid>
<Piece NumberOfPoints="29168" NumberOfCells="3646" >
  <Points>
    <DataArray type="Float32" NumberOfComponents="3" format="ascii">
-50 -50 0
-40 -50 0
-50 -40 0
-40 -40 0
-50 -50 10
-40 -50 10
-50 -40 10
-40 -40 10
-40 -50 0
-30 -50 0
-40 -40 0
-30 -40 0
-40 -50 10
-30 -50 10
-40 -40 10
-30 -40 10
-30 -50 0
-20 -50 0
-30 -40 0
-20 -40 0
-30 -50 10
-20 -50 10
-30 -40 10
-20 -40 10
-20 -50 0
-10 -50 0
-20 -40 0
-10 -40 0
-20 -50 10
-10 -50 10
-20 -40 10
-10 -40 10
-10 -50 0
0 -50 0
-10 -40 0
0 -40 0
-10 -50 10
0 -50 10
-10 -40 10
0 -40 10
0 -50 0
10 -50 0
0 -40 0
10 -40 0
0 -50 10
10 -50 10
0 -40 10
10 -40 10
10 -50 0
20 -50 0
10 -40 0
20 -40 0
10 -50 10
20 -50 10
10 -40 10
20 -40 10
20 -50 0
30 -50 0
20 -40 0
30 -40 0
20 -50 10
30 -50 10
20 -40 10
30 -40 10
30 -50 0
40 -50 0
30 -40 0
40 -40 0
30 -50 10
40 -50 10
30 -40 10
40 -40 10
40 -50 0
50 -50 0
40 -40 0
50 -40 0
40 -50 10
50 -50 10
40 -40 10
50 -40 10
-50 -40 0
-40 -40 0
-50 -30 0
-40 -30 0
-50 -40 10
-40 -40 10
-50 -30 10
-40 -30 10
-40 -40 0
-30 -40 0
-40 -30 0
-30 -30 0
-40 -40 10
-30 -40 10
-40 -30 10
-30 -30 10
-30 -40 0
-20 -40 0
-30 -30 0
-20 -30 0
-30 -40 10
-20 -40 10
-30 -30 10
-20 -30 10
-20 -40 0
-10 -40 0
-20 -30 0
-10 -30 0
-20 -40 10
-10 -40 10
-20 -30 10
-10 -30 10
-10 -40 0
0 -40 0
-10 -30 0
0 -30 0
-10 -40 10
0 -40 10
-10 -30 10
0 -30 10
0 -40 0
10 -40 0
0 -30 0
10 -30 0
0 -40 10
10 -40 10
0 -30 10
10 -30 10
10 -40 0
20 -40 0
10 -30 0
20 -30 0
10 -40 10
20 -40 10
10 -30 10
20 -30 10
20 -40 0
30 -40 0
20 -30 0
30 -30 0
20 -40 10
30 -40 10
20 -30 10
30 -30 10
30 -40 0
40 -40 0
30 -30 0
40 -30 0
30 -40 10
40 -40 10
30 -30 10
40 -30 10
40 -40 0
50 -40 0
40 -30 0
50 -30 0
40 -40 10
50 -40 10
40 -30 10
50 -30 10
0 -30 0
10 -30 0
0 -20 0
10 -20 0
0 -30 10
10 -30 10
0 -20 10
10 -20 10
10 -30 0
20 -30 0
10 -20 0
20 -20 0
10 -30 10
20 -30 10
10 -20 10
20 -20 10
20 -30 0
30 -30 0
20 -20 0
30 -20 0
20 -30 10
30 -30 10
20 -20 10
30 -20 10
30 -30 0
40 -30 0
30 -20 0
40 -20 0
30 -30 10
40 -30 10
30 -20 10
40 -20 10
40 -30 0
50 -30 0
40 -20 0
50 -20 0
40 -30 10
50 -30 10
40 -20 10
50 -20 10
0 -20 0
10 -20 0
0 -10 0
10 -10 0
0 -20 10
10 -20 10
0 -10 10
10 -10 10
10 -20 0
20 -20 0
10 -10 0
20 -10 0
10 -20 10
20 -20 10
10 -10 10
20 -10 10
20 -20 0
30 -20 0
20 -10 0
30 -10 0
20 -20 10
30 -20 10
20 -10 10
30 -10 10
30 -20 0
40 -20 0
30 -10 0
40 -10 0
30 -20 10
40 -20 10
30 -10 10
40 -10 10
40 -20 0
50 -20 0
40 -10 0
50 -10 0
40 -20 10
50 -20 10
40 -10 10
50 -10 10
20 -10 0
30 -10 0
20 0 0
30 0 0
20 -10 10
30 -10 10
20 0 10
30 0 10
30 -10 0
40 -10 0
30 0 0
40 0 0
30 -10 10
40 -10 10
30 0 10
40 0 10
40 -10 0
50 -10 0
40 0 0
50 0 0
40 -10 10
50 -10 10
40 0 10
50 0 10
20 0 0
30 0 0
20 10 0
30 10 0
20 0 10
30 0 10
20 10 10
30 10 10
30 0 0
40 0 0
30 10 0
40 10 0
30 0 10
40 0 10
30 10 10
40 10 10
40 0 0
50 0 0
40 10 0
50 10 0
40 0 10
50 0 10
40 10 10
50 10 10
0 10 0
10 10 0
0 20 0
10 20 0
0 10 10
10 10 10
0 20 10
10 20 10
10 10 0
20 10 0
10 20 0
20 20 0
10 10 10
20 10 10
10 20 10
20 20 10
20 10 0
30 10 0
20 20 0
30 20 0
20 10 10
30 10 10
20 20 10
30 20 10
30 10 0
40 10 0
30 20 0
40 20 0
30 10 10
40 10 10
30 20 10
40 20 10
40 10 0
50 10 0
40 20 0
50 20 0
40 10 10
50 10 10
40 20 10
50 20 10
0 20 0
10 20 0
0 30 0
10 30 0
0 20 10
10 20 10
0 30 10
10 30 10
10 20 0
20 20 0
10 30 0
20 30 0
10 20 10
20 20 10
10 30 10
20 30 10
20 20 0
30 20 0
20 30 0
30 30 0
20 20 10
30 20 10
20 30 10
30 30 10
30 20 0
40 20 0
30 30 0
40 30 0
30 20 10
40 20 10
30 30 10
40 30 10
40 20 0
50 20 0
40 30 0
50 30 0
40 20 10
50 20 10
40 30 10
50 30 10
-50 30 0
-40 30 0
-50 40 0
-40 40 0
-50 30 10
-40 30 10
-50 40 10
-40 40 10
-40 30 0
-30 30 0
-40 40 0
-30 40 0
-40 30 10
-30 30 10
-40 40 10
-30 40 10
-30 30 0
-20 30 0
-30 40 0
-20 40 0
-30 30 10
-20 30 10
-30 40 10
-20 40 10
-20 30 0
-10 30 0
-20 40 0
-10 40 0
-20 30 10
-10 30 10
-20 40 10
-10 40 10
-10 30 0
0 30 0
-10 40 0
0 40 0
-10 30 10
0 30 10
-10 40 10
0 40 10
0 30 0
10 30 0
0 40 0
10 40 0
0 30 10
10 30 10
0 40 10
10 40 10
10 30 0
20 30 0
10 40 0
20 40 0
10 30 10
20 30 10
10 40 10
20 40 10
20 30 0
30 30 0
20 40 0
30 40 0
20 30 10
30 30 10
20 40 10
30 40 10
30 30 0
40 30 0
30 40 0
40 40 0
30 30 10
40 30 10
30 40 10
40 40 10
40 30 0
50 30 0
40 40 0
50 40 0
40 30 10
50 30 10
40 40 10
50 40 10
-50 40 0
-40 40 0
-50 50 0
-40 50 0
-50 40 10
-40 40 10
-50 50 10
-40 50 10
-40 40 0
-30 40 0
-40 50 0
-30 50 0
-40 40 10
-30 40 10
-40 50 10
-30 50 10
-30 40 0
-20 40 0
-30 50 0
-20 50 0
-30 40 10
-20 40 10
-30 50 10
-20 50 10
-20 40 0
-10 40 0
-20 50 0
-10 50 0
-20 40 10
-10 40 10
-20 50 10
-10 50 10
-10 40 0
0 40 0
-10 50 0
0 50 0
-10 40 10
0 40 10
-10 50 10
0 50 10
0 40 0
10 40 0
0 50 0
10 50 0
0 40 10
10 40 10
0 50 10
10 50 10
10 40 0
20 40 0
10 50 0
20 50 0
10 40 10
20 40 10
10 50 10
20 50 10
20 40 0
30 40 0
20 50 0
30 50 0
20 40 10
30 40 10
20 50 10
30 50 10
30 40 0
40 40 0
30 50 0
40 50 0
30 40 10
40 40 10
30 50 10
40 50 10
40 40 0
50 40 0
40 50 0
50 50 0
40 40 10
50 40 10
40 50 10
50 50 10
-50 -50 10
-40 -50 10
-50 -40 10
-40 -40 10
-50 -50 20
-40 -50 20
-50 -40 20
-40 -40 20
-40 -50 10
-30 -50 10
-40 -40 10
-30 -40 10
-40 -50 20
-30 -50 20
-40 -40 20
-30 -40 20
-30 -50 10
-20 -50 10
-30 -40 10
-20 -40 10
-30 -50 20
-20 -50 20
-30 -40 20
-20 -40 20
-20 -50 10
-10 -50 10
-20 -40 10
-10 -40 10
-20 -50 20
-10 -50 20
-20 -40 20
-10 -40 20
-10 -50 10
0 -50 10
-10 -40 10
0 -40 10
-10 -50 20
0 -50 20
-10 -40 20
0 -40 20
0 -50 10
10 -50 10
0 -40 10
10 -40 10
0 -50 20
10 -50 20
0 -40 20
10 -40 20
10 -50 10
20 -50 10
10 -40 10
20 -40 10
10 -50 20
20 -50 20
10 -40 20
20 -40 20
20 -50 10
30 -50 10
20 -40 10
30 -40 10
20 -50 20
30 -50 20
20 -40 20
30 -40 20
30 -50 10
40 -50 10
30 -40 10
40 -40 10
30 -50 20
40 -50 20
30 -40 20
40 -40 20
40 -50 10
50 -50 10
40 -40 10
50 -40 10
40 -50 20
50 -50 20
40 -40 20
50 -40 20
-50 -40 10
-40 -40 10
-50 -30 10
-40 -30 10
-50 -40 20
-40 -40 20
-50 -30 20
-40 -30 20
-40 -40 10
-30 -40 10
-40 -30 10
-30 -30 10
-40 -40 20
-30 -40 20
-40 -30 20
-30 -30 20
-30 -40 10
-20 -40 10
-30 -30 10
-20 -30 10
-30 -40 20
-20 -40 20
-30 -30 20
-20 -30 20
-20 -40 10
-10 -40 10
-20 -30 10
-10 -30 10
-20 -40 20
-10 -40 20
-20 -30 20
-10 -30 20
-10 -40 10
0 -40 10
-10 -30 10
0 -30 10
-10 -40 20
0 -40 20
-10 -30 20
0 -30 20
0 -40 10
10 -40 10
0 -30 10
10 -30 10
0 -40 20
10 -40 20
0 -30 20
10 -30 20
10 -40 10
20 -40 10
10 -30 10
20 -30 10
10 -40 20
20 -40 20
10 -30 20
20 -30 20
20 -40 10
30 -40 10
20 -30 10
30 -30 10
20 -40 20
30 -40 20
20 -30 20
30 -30 20
30 -40 10
40 -40 10
30 -30 10
40 -30 10
30 -40 20
40 -40 20
30 -30 20
40 -30 20
40 -40 10
50 -40 10
40 -30 10
50 -30 10
40 -40 20
50 -40 20
40 -30 20
50 -30 20
0 -30 10
10 -30 10
0 -20 10
10 -20 10
0 -30 20
10 -30 20
0 -20 20
10 -20 20
10 -30 10
20 -30 10
10 -20 10
20 -20 10
10 -30 20
20 -30 20
10 -20 20
20 -20 20
20 -30 10
30 -30 10
20 -20 10
30 -20 10
20 -30 20
30 -30 20
20 -20 20
30 -20 20
30 -30 10
40 -30 10
30 -20 10
40 -20 10
30 -30 20
40 -30 20
30 -20 20
40 -20 20
40 -30 10
50 -30 10
40 -20 10
50 -20 10
40 -30 20
50 -30 20
40 -20 20
50 -20 20
0 -20 10
10 -20 10
0 -10 10
10 -10 10
0 -20 20
10 -20 20
0 -10 20
10 -10 20
10 -20 10
20 -20 10
10 -10 10
20 -10 10
10 -20 20
20 -20 20
10 -10 20
20 -10 20
20 -20 10
30 -20 10
20 -10 10
30 -10 10
20 -20 20
30 -20 20
20 -10 20
30 -10 20
30 -20 10
40 -20 10
30 -10 10
40 -10 10
30 -20 20
40 -20 20
30 -10 20
40 -10 20
40 -20 10
50 -20 10
40 -10 10
50 -10 10
40 -20 20
50 -20 20
40 -10 20
50 -10 20
0 -10 10
10 -10 10
0 0 10
10 0 10
0 -10 20
10 -10 20
0 0 20
10 0 20
10 -10 10
20 -10 10
10 0 10
20 0 10
10 -10 20
20 -10 20
10 0 20
20 0 20
20 -10 10
30 -10 10
20 0 10
30 0 10
20 -10 20
30 -10 20
20 0 20
30 0 20
30 -10 10
40 -10 10
30 0 10
40 0 10
30 -10 20
40 -10 20
30 0 20
40 0 20
40 -10 10
50 -10 10
40 0 10
50 0 10
40 -10 20
50 -10 20
40 0 20
50 0 20
0 0 10
10 0 10
0 10 10
10 10 10
0 0 20
10 0 20
0 10 20
10 10 20
10 0 10
20 0 10
10 10 10
20 10 10
10 0 20
20 0 20
10 10 20
20 10 20
20 0 10
30 0 10
20 10 10
30 10 10
20 0 20
30 0 20
20 10 20
30 10 20
30 0 10
40 0 10
30 10 10
40 10 10
30 0 20
40 0 20
30 10 20
40 10 20
40 0 10
50 0 10
40 10 10
50 10 10
40 0 20
50 0 20
40 10 20
50 10 20
0 10 10
10 10 10
0 20 10
10 20 10
0 10 20
10 10 20
0 20 20
10 20 20
10 10 10
20 10 10
10 20 10
20 20 10
10 10 20
20 10 20
10 20 20
20 20 20
20 10 10
30 10 10
20 20 10
30 20 10
20 10 20
30 10 20
20 20 20
30 20 20
30 10 10
40 10 10
30 20 10
40 20 10
30 10 20
40 10 20
30 20 20
40 20 20
40 10 10
50 10 10
40 20 10
50 20 10
40 10 20
50 10 20
40 20 20
50 20 20
0 20 10
10 20 10
0 30 10
10 30 10
0 20 20
10 20 20
0 30 20
10 30 20
10 20 10
20 20 10
10 30 10
20 30 10
10 20 20
20 20 20
10 30 20
20 30 20
20 20 10
30 20 10
20 30 10
30 30 10
20 20 20
30 20 20
20 30 20
30 30 20
30 20 10
40 20 10
30 30 10
40 30 10
30 20 20
40 20 20
30 30 20
40 30 20
40 20 10
50 20 10
40 30 10
50 30 10
40 20 20
50 20 20
40 30 20
50 30 20
-50 30 10
-40 30 10
-50 40 10
-40 40 10
-50 30 20
-40 30 20
-50 40 20
-40 40 20
-40 30 10
-30 30 10
-40 40 10
-30 40 10
-40 30 20
-30 30 20
-40 40 20
-30 40 20
-30 30 10
-20 30 10
-30 40 10
-20 40 10
-30 30 20
-20 30 20
-30 40 20
-20 40 20
-20 30 10
-10 30 10
-20 40 10
-10 40 10
-20 30 20
-10 30 20
-20 40 20
-10 40 20
-10 30 10
0 30 10
-10 40 10
0 40 10
-10 30 20
0 30 20
-10 40 20
0 40 20
0 30 10
10 30 10
0 40 10
10 40 10
0 30 20
10 30 20
0 40 20
10 40 20
10 30 10
20 30 10
10 40 10
20 40 10
10 30 20
20 30 20
10 40 20
20 40 20
20 30 10
30 30 10
20 40 10
30 40 10
20 30 20
30 30 20
20 40 20
30 40 20
30 30 10
40 30 10
30 40 10
40 40 10
30 30 20
40 30 20
30 40 20
40 40 20
40 30 10
50 30 10
40 40 10
50 40 10
40 30 20
50 30 20
40 40 20
50 40 20
-50 40 10
-40 40 10
-50 50 10
-40 50 10
-50 40 20
-40 40 20
-50 50 20
-40 50 20
-40 40 10
-30 40 10
-40 50 10
-30 50 10
-40 40 20
-30 40 20
-40 50 20
-30 50 20
-30 40 10
-20 40 10
-30 50 10
-20 50 10
-30 40 20
-20 40 20
[...]
  <PointData Scalars="scalars">
    <DataArray type="Float32" Name="u" format="ascii">
0.293067 0.311959 0.355218 0.385874 0.2883 0.305978 0.346787 0.374709 0.311959 0.318487 0.385874 0.397571 0.305978 0.312168 0.374709 0.385331 0.318487 0.312201 0.397571 0.385307 0.312168 0.306298 0.385331 0.37443 0.312201 0.295569 0.385307 0.355688 0.306298 0.290539 0.37443 0.347094 0.295569 0.272758 0.355688 0.318241 0.290539 0.268895 0.347094 0.312109 0.272758 0.248763 0.318241 0.28155 0.268895 0.245831 0.312109 0.277322 0.248763 0.225342 0.28155 0.248729 0.245831 0.223153 0.277322 0.245786 0.225342 0.203946 0.248729 0.220814 0.223153 0.202314 0.245786 0.218746 0.203946 0.185047 0.220814 0.197386 0.202314 0.183826 0.218746 0.195905 0.185047 0.168334 0.197386 0.177879 0.183826 0.167417 0.195905 0.176795 0.355218 0.385874 0.445787 0.507161 0.346787 0.374709 0.429775 0.481467 0.385874 0.397571 0.507161 0.529897 0.374709 0.385331 0.481467 0.500741 0.397571 0.385307 0.529897 0.500711 0.385331 0.37443 0.500741 0.478774 0.385307 0.355688 0.500711 0.445134 0.37443 0.347094 0.478774 0.428379 0.355688 0.318241 0.445134 0.375493 0.347094 0.312109 0.428379 0.365539 0.318241 0.28155 0.375493 0.318112 0.312109 0.277322 0.365539 0.312006 0.28155 0.248729 0.318112 0.273017 0.277322 0.245786 0.312006 0.269141 0.248729 0.220814 0.273017 0.237273 0.245786 0.218746 0.269141 0.234701 0.220814 0.197386 0.237273 0.208917 0.218746 0.195905 0.234701 0.207163 0.197386 0.177879 0.208917 0.186185 0.195905 0.176795 0.207163 0.184942 0.375493 0.318112 0.443226 0.355795 0.365539 0.312006 0.427629 0.347157 0.318112 0.273017 0.355795 0.295666 0.312006 0.269141 0.347157 0.29079 0.273017 0.237273 0.295666 0.251544 0.269141 0.234701 0.29079 0.248483 0.237273 0.208917 0.251544 0.218525 0.234701 0.207163 0.248483 0.216512 0.208917 0.186185 0.218525 0.192843 0.207163 0.184942 0.216512 0.191457 0.443226 0.355795 0.502967 0.383815 0.427629 0.347157 0.480949 0.373152 0.355795 0.295666 0.383815 0.31186 0.347157 0.29079 0.373152 0.305841 0.295666 0.251544 0.31186 0.262017 0.29079 0.248483 0.305841 0.258732 0.251544 0.218525 0.262017 0.224973 0.248483 0.216512 0.258732 0.222723 0.218525 0.192843 0.224973 0.197189 0.216512 0.191457 0.222723 0.195716 0.31186 0.262017 0.320038 0.265487 0.305841 0.258732 0.311902 0.26201 0.262017 0.224973 0.265487 0.227284 0.258732 0.222723 0.26201 0.22497 0.224973 0.197189 0.227284 0.1987 0.222723 0.195716 0.22497 0.197186 0.320038 0.265487 0.311933 0.262004 0.311902 0.26201 0.30569 0.258714 0.265487 0.227284 0.262004 0.224966 0.26201 0.22497 0.258714 0.222718 0.227284 0.1987 0.224966 0.197185 0.22497 0.197186 0.222718 0.195712 0.503289 0.38313 0.444833 0.355769 0.481896 0.373797 0.428068 0.347199 0.38313 0.311933 0.355769 0.295627 0.373797 0.30569 0.347199 0.290753 0.311933 0.262004 0.295627 0.251522 0.30569 0.258714 0.290753 0.248467 0.262004 0.224966 0.251522 0.218515 0.258714 0.222718 0.248467 0.216502 0.224966 0.197185 0.218515 0.192836 0.222718 0.195712 0.216502 0.19145 0.444833 0.355769 0.375387 0.31813 0.428068 0.347199 0.365541 0.311996 0.355769 0.295627 0.31813 0.272987 0.347199 0.290753 0.311996 0.26912 0.295627 0.251522 0.272987 0.237258 0.290753 0.248467 0.26912 0.234686 0.251522 0.218515 0.237258 0.208907 0.248467 0.216502 0.234686 0.207153 0.218515 0.192836 0.208907 0.186177 0.216502 0.19145 0.207153 0.184934 0.445802 0.507174 0.355232 0.385888 0.429794 0.481484 0.346803 0.374726 0.507174 0.529892 0.385888 0.397579 0.481484 0.500742 0.374726 0.385344 0.529892 0.500677 0.397579 0.385314 0.500742 0.47876 0.385344 0.374442 0.500677 0.445219 0.385314 0.355702 0.47876 0.428428 0.374442 0.347107 0.445219 0.375387 0.355702 0.318252 0.428428 0.365541 0.347107 0.312112 0.375387 0.31813 0.318252 0.281538 0.365541 0.311996 0.312112 0.277318 0.31813 0.272987 0.281538 0.248722 0.311996 0.26912 0.277318 0.245778 0.272987 0.237258 0.248722 0.220802 0.26912 0.234686 0.245778 0.218736 0.237258 0.208907 0.220802 0.197377 0.234686 0.207153 0.218736 0.195896 0.208907 0.186177 0.197377 0.177871 0.207153 0.184934 0.195896 0.176787 0.355232 0.385888 0.29308 0.311971 0.346803 0.374726 0.288313 0.305992 0.385888 0.397579 0.311971 0.318497 0.374726 0.385344 0.305992 0.31218 0.397579 0.385314 0.318497 0.312211 0.385344 0.374442 0.31218 0.306309 0.385314 0.355702 0.312211 0.295578 0.374442 0.347107 0.306309 0.290548 0.355702 0.318252 0.295578 0.272758 0.347107 0.312112 0.290548 0.268899 0.318252 0.281538 0.272758 0.248761 0.312112 0.277318 0.268899 0.245828 0.281538 0.248722 0.248761 0.225334 0.277318 0.245778 0.245828 0.223147 0.248722 0.220802 0.225334 0.203938 0.245778 0.218736 0.223147 0.202307 0.220802 0.197377 0.203938 0.185039 0.218736 0.195896 0.202307 0.183818 0.197377 0.177871 0.185039 0.168326 0.195896 0.176787 0.183818 0.16741 0.2883 0.305978 0.346787 0.374709 0.275426 0.289206 0.325081 0.346832 0.305978 0.312168 0.374709 0.385331 0.289206 0.295455 0.346832 0.355748 0.312168 0.306298 0.385331 0.37443 0.295455 0.290514 0.355748 0.347084 0.306298 0.290539 0.37443 0.347094 0.290514 0.276414 0.347084 0.323693 0.290539 0.268895 0.347094 0.312109 0.276414 0.258251 0.323693 0.295749 0.268895 0.245831 0.312109 0.277322 0.258251 0.23761 0.295749 0.265634 0.245831 0.223153 0.277322 0.245786 0.23761 0.216931 0.265634 0.237557 0.223153 0.202314 0.245786 0.218746 0.216931 0.197641 0.237557 0.212864 0.202314 0.183826 0.218746 0.195905 0.197641 0.180297 0.212864 0.19165 0.183826 0.167417 0.195905 0.176795 0.180297 0.164752 0.19165 0.173654 0.346787 0.374709 0.429775 0.481467 0.325081 0.346832 0.38841 0.428102 0.374709 0.385331 0.481467 0.500741 0.346832 0.355748 0.428102 0.445278 0.385331 0.37443 0.500741 0.478774 0.355748 0.347084 0.445278 0.428479 0.37443 0.347094 0.478774 0.428379 0.347084 0.323693 0.428479 0.386257 0.347094 0.312109 0.428379 0.365539 0.323693 0.295749 0.386257 0.339764 0.312109 0.277322 0.365539 0.312006 0.295749 0.265634 0.339764 0.295737 0.277322 0.245786 0.312006 0.269141 0.265634 0.237557 0.295737 0.258303 0.245786 0.218746 0.269141 0.234701 0.237557 0.212864 0.258303 0.22747 0.218746 0.195905 0.234701 0.207163 0.212864 0.19165 0.22747 0.202151 0.195905 0.176795 0.207163 0.184942 0.19165 0.173654 0.202151 0.181352 0.365539 0.312006 0.427629 0.347157 0.339764 0.295737 0.386463 0.323594 0.312006 0.269141 0.347157 0.29079 0.295737 0.258303 0.323594 0.277019 0.269141 0.234701 0.29079 0.248483 0.258303 0.22747 0.277019 0.239958 0.234701 0.207163 0.248483 0.216512 0.22747 0.202151 0.239958 0.210768 0.207163 0.184942 0.216512 0.191457 0.202151 0.181352 0.210768 0.187485 0.427629 0.347157 0.480949 0.373152 0.386463 0.323594 0.428229 0.347085 0.347157 0.29079 0.373152 0.305841 0.323594 0.277019 0.347085 0.290758 0.29079 0.248483 0.305841 0.258732 0.277019 0.239958 0.290758 0.248479 0.248483 0.216512 0.258732 0.222723 0.239958 0.210768 0.248479 0.216513 0.216512 0.191457 0.222723 0.195716 0.210768 0.187485 0.216513 0.191458 0.480949 0.373152 0.50339 0.38324 0.428229 0.347085 0.444636 0.355798 0.373152 0.305841 0.38324 0.311902 0.347085 0.290758 0.355798 0.295647 0.305841 0.258732 0.311902 0.26201 0.290758 0.248479 0.295647 0.251527 0.258732 0.222723 0.26201 0.22497 0.248479 0.216513 0.251527 0.218526 0.222723 0.195716 0.22497 0.197186 0.216513 0.191458 0.218526 0.192841 0.50339 0.38324 0.481896 0.373797 0.444636 0.355798 0.428114 0.34718 0.38324 0.311902 0.373797 0.30569 0.355798 0.295647 0.34718 0.290744 0.311902 0.26201 0.30569 0.258714 0.295647 0.251527 0.290744 0.248471 0.26201 0.22497 0.258714 0.222718 0.251527 0.218526 0.248471 0.216508 0.22497 0.197186 0.222718 0.195712 0.218526 0.192841 0.216508 0.191454 0.481896 0.373797 0.428068 0.347199 0.428114 0.34718 0.386435 0.323543 0.373797 0.30569 0.347199 0.290753 0.34718 0.290744 0.323543 0.277001 0.30569 0.258714 0.290753 0.248467 0.290744 0.248471 0.277001 0.239945 0.258714 0.222718 0.248467 0.216502 0.248471 0.216508 0.239945 0.210761 0.222718 0.195712 0.216502 0.19145 0.216508 0.191454 0.210761 0.187479 0.428068 0.347199 0.365541 0.311996 0.386435 0.323543 0.339798 0.295738 0.347199 0.290753 0.311996 0.26912 0.323543 0.277001 0.295738 0.258289 0.290753 0.248467 0.26912 0.234686 0.277001 0.239945 0.258289 0.22746 0.248467 0.216502 0.234686 0.207153 0.239945 0.210761 0.22746 0.202143 0.216502 0.19145 0.207153 0.184934 0.210761 0.187479 0.202143 0.181346 0.429794 0.481484 0.346803 0.374726 0.388429 0.428152 0.325101 0.346854 0.481484 0.500742 0.374726 0.385344 0.428152 0.445357 0.346854 0.355771 0.500742 0.47876 0.385344 0.374442 0.445357 0.42852 0.355771 0.347103 0.47876 0.428428 0.374442 0.347107 0.42852 0.386283 0.347103 0.323708 0.428428 0.365541 0.347107 0.312112 0.386283 0.339798 0.323708 0.295755 0.365541 0.311996 0.312112 0.277318 0.339798 0.295738 0.295755 0.265633 0.311996 0.26912 0.277318 0.245778 0.295738 0.258289 0.265633 0.237551 0.26912 0.234686 0.245778 0.218736 0.258289 0.22746 0.237551 0.212856 0.234686 0.207153 0.218736 0.195896 0.22746 0.202143 0.212856 0.191643 0.207153 0.184934 0.195896 0.176787 0.202143 0.181346 0.191643 0.173648 0.346803 0.374726 0.288313 0.305992 0.325101 0.346854 0.275441 0.289221 0.374726 0.385344 0.305992 0.31218 0.346854 0.355771 0.289221 0.295471 0.385344 0.374442 0.31218 0.306309 0.355771 0.347103 0.295471 0.290527 0.374442 0.347107 0.306309 0.290548 0.347103 0.323708 0.290527 0.276424 0.347107 0.312112 0.290548 0.268899 0.323708 0.295755 0.276424 0.258256 0.312112 0.277318 0.268899 0.245828 0.295755 0.265633 0.258256 0.237609 0.277318 0.245778 0.245828 0.223147 0.265633 0.237551 0.237609 0.216927 0.245778 0.218736 0.223147 0.202307 0.237551 0.212856 0.216927 0.197635 0.218736 0.195896 0.202307 0.183818 0.212856 0.191643 0.197635 0.180291 0.195896 0.176787 0.183818 0.16741 0.191643 0.173648 0.180291 0.164746 0.275426 0.289206 0.325081 0.346832 0.257306 0.268876 0.295545 0.311838 0.289206 0.295455 0.346832 0.355748 0.268876 0.272592 0.311838 0.318814 0.295455 0.290514 0.355748 0.347084 0.272592 0.268898 0.318814 0.311845 0.290514 0.276414 0.347084 0.323693 0.268898 0.258187 0.311845 0.295699 0.276414 0.258251 0.323693 0.295749 0.258187 0.242988 0.295699 0.273329 0.258251 0.23761 0.295749 0.265634 0.242988 0.225516 0.273329 0.249013 0.23761 0.216931 0.265634 0.237557 0.225516 0.207597 0.249013 0.225448 0.216931 0.197641 0.237557 0.212864 0.207597 0.190502 0.225448 0.204021 0.197641 0.180297 0.212864 0.19165 0.190502 0.174831 0.204021 0.185122 0.180297 0.164752 0.19165 0.173654 0.174831 0.16057 0.185122 0.168762 0.325081 0.346832 0.38841 0.428102 0.295545 0.311838 0.340383 0.365184 0.346832 0.355748 0.428102 0.445278 0.311838 0.318814 0.365184 0.376344 0.355748 0.347084 0.445278 0.428479 0.318814 0.311845 0.376344 0.365126 0.347084 0.323693 0.428479 0.386257 0.311845 0.295699 0.365126 0.33973 0.323693 0.295749 0.386257 0.339764 0.295699 0.273329 0.33973 0.306766 0.295749 0.265634 0.339764 0.295737 0.273329 0.249013 0.306766 0.273344 0.265634 0.237557 0.295737 0.258303 0.249013 0.225448 0.273344 0.242974 0.237557 0.212864 0.258303 0.22747 0.225448 0.204021 0.242974 0.21676 0.212864 0.19165 0.22747 0.202151 0.204021 0.185122 0.21676 0.194534 0.19165 0.173654 0.202151 0.181352 0.185122 0.168762 0.194534 0.175802 0.386257 0.339764 0.458802 0.386463 0.33973 0.306766 0.386277 0.339717 0.339764 0.295737 0.386463 0.323594 0.306766 0.273344 0.339717 0.295698 0.295737 0.258303 0.323594 0.277019 0.273344 0.242974 0.295698 0.258272 0.258303 0.22747 0.277019 0.239958 0.242974 0.21676 0.258272 0.22747 0.22747 0.202151 0.239958 0.210768 0.21676 0.194534 0.22747 0.202163 0.202151 0.181352 0.210768 0.187485 0.194534 0.175802 0.202163 0.181368 0.386463 0.323594 0.428229 0.347085 0.339717 0.295698 0.365173 0.311756 0.323594 0.277019 0.347085 0.290758 0.295698 0.258272 0.311756 0.269144 0.277019 0.239958 0.290758 0.248479 0.258272 0.22747 0.269144 0.234693 0.239958 0.210768 0.248479 0.216513 0.22747 0.202163 0.234693 0.20718 0.210768 0.187485 0.216513 0.191458 0.202163 0.181368 0.20718 0.18496 0.428229 0.347085 0.444636 0.355798 0.365173 0.311756 0.376277 0.318674 0.347085 0.290758 0.355798 0.295647 0.311756 0.269144 0.318674 0.272939 0.290758 0.248479 0.295647 0.251527 0.269144 0.234693 0.272939 0.237272 0.248479 0.216513 0.251527 0.218526 0.234693 0.20718 0.237272 0.208932 0.216513 0.191458 0.218526 0.192841 0.20718 0.18496 0.208932 0.186202 0.444636 0.355798 0.428114 0.34718 0.376277 0.318674 0.365133 0.311736 0.355798 0.295647 0.34718 0.290744 0.318674 0.272939 0.311736 0.269135 0.295647 0.251527 0.290744 0.248471 0.272939 0.237272 0.269135 0.234688 0.251527 0.218526 0.248471 0.216508 0.237272 0.208932 0.234688 0.207176 0.218526 0.192841 0.216508 0.191454 0.208932 0.186202 0.207176 0.184957 0.428114 0.34718 0.386435 0.323543 0.365133 0.311736 0.339728 0.295691 0.34718 0.290744 0.323543 0.277001 0.311736 0.269135 0.295691 0.258262 0.290744 0.248471 0.277001 0.239945 0.269135 0.234688 0.258262 0.227463 0.248471 0.216508 0.239945 0.210761 0.234688 0.207176 0.227463 0.202158 0.216508 0.191454 0.210761 0.187479 0.207176 0.184957 0.202158 0.181364 0.458881 0.386435 0.386283 0.339798 0.386192 0.339728 0.339759 0.306762 0.386435 0.323543 0.339798 0.295738 0.339728 0.295691 0.306762 0.27334 0.323543 0.277001 0.295738 0.258289 0.295691 0.258262 0.27334 0.242967 0.277001 0.239945 0.258289 0.22746 0.258262 0.227463 0.242967 0.216753 0.239945 0.210761 0.22746 0.202143 0.227463 0.202158 0.216753 0.194528 0.210761 0.187479 0.202143 0.181346 0.202158 0.181364 0.194528 0.175797 0.388429 0.428152 0.325101 0.346854 0.340425 0.365211 0.295562 0.311858 0.428152 0.445357 0.346854 0.355771 0.365211 0.376305 0.311858 0.318832 0.445357 0.42852 0.355771 0.347103 0.376305 0.365156 0.318832 0.311863 0.42852 0.386283 0.347103 0.323708 0.365156 0.339759 0.311863 0.295711 0.386283 0.339798 0.323708 0.295755 0.339759 0.306762 0.295711 0.273336 0.339798 0.295738 0.295755 0.265633 0.306762 0.27334 0.273336 0.249013 0.295738 0.258289 0.265633 0.237551 0.27334 0.242967 0.249013 0.225443 0.258289 0.22746 0.237551 0.212856 0.242967 0.216753 0.225443 0.204015 0.22746 0.202143 0.212856 0.191643 0.216753 0.194528 0.204015 0.185116 0.202143 0.181346 0.191643 0.173648 0.194528 0.175797 0.185116 0.168757 0.325101 0.346854 0.275441 0.289221 0.295562 0.311858 0.257321 0.268891 0.346854 0.355771 0.289221 0.295471 0.311858 0.318832 0.268891 0.272607 0.355771 0.347103 0.295471 0.290527 0.318832 0.311863 0.272607 0.268911 0.347103 0.323708 0.290527 0.276424 0.311863 0.295711 0.268911 0.258196 0.323708 0.295755 0.276424 0.258256 0.295711 0.273336 0.258196 0.242992 0.295755 0.265633 0.258256 0.237609 0.273336 0.249013 0.242992 0.225516 0.265633 0.237551 0.237609 0.216927 0.249013 0.225443 0.225516 0.207593 0.237551 0.212856 0.216927 0.197635 0.225443 0.204015 0.207593 0.190497 0.212856 0.191643 0.197635 0.180291 0.204015 0.185116 0.190497 0.174825 0.191643 0.173648 0.180291 0.164746 0.185116 0.168757 0.174825 0.160565 0.257306 0.268876 0.295545 0.311838 0.236809 0.245588 0.265373 0.277086 0.268876 0.272592 0.311838 0.318814 0.245588 0.248666 0.277086 0.281419 0.272592 0.268898 0.318814 0.311845 0.248666 0.245715 0.281419 0.277211 0.268898 0.258187 0.311845 0.295699 0.245715 0.237522 0.277211 0.265526 0.258187 0.242988 0.295699 0.273329 0.237522 0.225474 0.265526 0.248976 0.242988 0.225516 0.273329 0.249013 0.225474 0.211244 0.248976 0.230161 0.225516 0.207597 0.249013 0.225448 0.211244 0.196296 0.230161 0.211183 0.207597 0.190502 0.225448 0.204021 0.196296 0.181661 0.211183 0.193274 0.190502 0.174831 0.204021 0.185122 0.181661 0.167929 0.193274 0.176987 0.174831 0.16057 0.185122 0.168762 0.167929 0.155196 0.176987 0.162539 0.295545 0.311838 0.340383 0.365184 0.265373 0.277086 0.295408 0.311714 0.311838 0.318814 0.365184 0.376344 0.277086 0.281419 0.311714 0.318632 0.318814 0.311845 0.376344 0.365126 0.281419 0.277211 0.318632 0.311651 0.311845 0.295699 0.365126 0.33973 0.277211 0.265526 0.311651 0.295623 0.295699 0.273329 0.33973 0.306766 0.265526 0.248976 0.295623 0.273294 0.273329 0.249013 0.306766 0.273344 0.248976 0.230161 0.273294 0.248968 0.249013 0.225448 0.273344 0.242974 0.230161 0.211183 0.248968 0.22541 0.225448 0.204021 0.242974 0.21676 0.211183 0.193274 0.22541 0.204008 0.204021 0.185122 0.21676 0.194534 0.193274 0.176987 0.204008 0.18516 0.185122 0.168762 0.194534 0.175802 0.176987 0.162539 0.18516 0.168804 0.340383 0.365184 0.388586 0.427922 0.295408 0.311714 0.32462 0.347096 0.365184 0.376344 0.427922 0.444231 0.311714 0.318632 0.347096 0.355633 0.376344 0.365126 0.444231 0.428042 0.318632 0.311651 0.355633 0.346942 0.365126 0.33973 0.428042 0.386277 0.311651 0.295623 0.346942 0.323384 0.33973 0.306766 0.386277 0.339717 0.295623 0.273294 0.323384 0.295632 0.306766 0.273344 0.339717 0.295698 0.273294 0.248968 0.295632 0.265537 0.273344 0.242974 0.295698 0.258272 0.248968 0.22541 0.265537 0.237503 0.242974 0.21676 0.258272 0.22747 0.22541 0.204008 0.237503 0.212852 0.21676 0.194534 0.22747 0.202163 0.204008 0.18516 0.212852 0.191707 0.194534 0.175802 0.202163 0.181368 0.18516 0.168804 0.191707 0.173717 0.388586 0.427922 0.429345 0.482378 0.32462 0.347096 0.346782 0.374785 0.427922 0.444231 0.482378 0.505225 0.347096 0.355633 0.374785 0.385613 0.444231 0.428042 0.505225 0.480482 0.355633 0.346942 0.385613 0.374478 0.428042 0.386277 0.480482 0.428151 0.346942 0.323384 0.374478 0.346935 0.386277 0.339717 0.428151 0.365173 0.323384 0.295632 0.346935 0.311673 0.339717 0.295698 0.365173 0.311756 0.295632 0.265537 0.311673 0.277253 0.295698 0.258272 0.311756 0.269144 0.265537 0.237503 0.277253 0.245736 0.258272 0.22747 0.269144 0.234693 0.237503 0.212852 0.245736 0.218738 0.22747 0.202163 0.234693 0.20718 0.212852 0.191707 0.218738 0.195971 0.202163 0.181368 0.20718 0.18496 0.191707 0.173717 0.195971 0.176866 0.429345 0.482378 0.446338 0.505268 0.346782 0.374785 0.355266 0.385631 0.482378 0.505225 0.505268 0.529914 0.374785 0.385613 0.385631 0.397445 0.505225 0.480482 0.529914 0.500556 0.385613 0.374478 0.397445 0.385127 0.480482 0.428151 0.500556 0.44508 0.374478 0.346935 0.385127 0.355575 0.428151 0.365173 0.44508 0.376277 0.346935 0.311673 0.355575 0.318608 0.365173 0.311756 0.376277 0.318674 0.311673 0.277253 0.318608 0.281498 0.311756 0.269144 0.318674 0.272939 0.277253 0.245736 0.281498 0.248706 0.269144 0.234693 0.272939 0.237272 0.245736 0.218738 0.248706 0.220801 0.234693 0.20718 0.237272 0.208932 0.218738 0.195971 0.220801 0.197455 0.20718 0.18496 0.208932 0.186202 0.195971 0.176866 0.197455 0.177951 0.446338 0.505268 0.429657 0.480777 0.355266 0.385631 0.346709 0.374548 0.505268 0.529914 0.480777 0.500692 0.385631 0.397445 0.374548 0.385164 0.529914 0.500556 0.500692 0.478651 0.397445 0.385127 0.385164 0.37423 0.500556 0.44508 0.478651 0.428363 0.385127 0.355575 0.37423 0.3469 0.44508 0.376277 0.428363 0.365133 0.355575 0.318608 0.3469 0.311669 0.376277 0.318674 0.365133 0.311736 0.318608 0.281498 0.311669 0.277248 0.318674 0.272939 0.311736 0.269135 0.281498 0.248706 0.277248 0.245732 0.272939 0.237272 0.269135 0.234688 0.248706 0.220801 0.245732 0.218735 0.237272 0.208932 0.234688 0.207176 0.220801 0.197455 0.218735 0.195969 0.208932 0.186202 0.207176 0.184957 0.197455 0.177951 0.195969 0.176864 0.429657 0.480777 0.388404 0.428257 0.346709 0.374548 0.324566 0.34706 0.480777 0.500692 0.428257 0.445286 0.374548 0.385164 0.34706 0.355603 0.500692 0.478651 0.445286 0.428426 0.385164 0.37423 0.355603 0.346915 0.478651 0.428363 0.428426 0.386192 0.37423 0.3469 0.346915 0.323376 0.428363 0.365133 0.386192 0.339728 0.3469 0.311669 0.323376 0.295621 0.365133 0.311736 0.339728 0.295691 0.311669 0.277248 0.295621 0.265531 0.311736 0.269135 0.295691 0.258262 0.277248 0.245732 0.265531 0.237499 0.269135 0.234688 0.258262 0.227463 0.245732 0.218735 0.237499 0.212848 0.234688 0.207176 0.227463 0.202158 0.218735 0.195969 0.212848 0.191703 0.207176 0.184957 0.202158 0.181364 0.195969 0.176864 0.191703 0.173714 0.388404 0.428257 0.340425 0.365211 0.324566 0.34706 0.295409 0.311735 0.428257 0.445286 0.365211