<?xml version="1.0" ?> 
<!-- 
# vtk DataFile Version 3.0
#This file was generated by the deal.II library on 16:46:49 at 2019/11/27
-->
<VTKFile type="UnstructuredGrid" version="0.1" byte_order="LittleEndian">
<UnstructuredGrid>
<Piece NumberOfPoints="9680" NumberOfCells="1210" >
  <Points>
    <DataArray type="Float32" NumberOfComponents="3" format="ascii">
-50 -50 0
-40 -50 0
-50 -40 0
-40 -40 0
-50 -50 10
-40 -50 10
-50 -40 10
-40 -40 10
-40 -50 0
-30 -50 0
-40 -40 0
-30 -40 0
-40 -50 10
-30 -50 10
-40 -40 10
-30 -40 10
-30 -50 0
-20 -50 0
-30 -40 0
-20 -40 0
-30 -50 10
-20 -50 10
-30 -40 10
-20 -40 10
-20 -50 0
-10 -50 0
-20 -40 0
-10 -40 0
-20 -50 10
-10 -50 10
-20 -40 10
-10 -40 10
-10 -50 0
0 -50 0
-10 -40 0
0 -40 0
-10 -50 10
0 -50 10
-10 -40 10
0 -40 10
0 -50 0
10 -50 0
0 -40 0
10 -40 0
0 -50 10
10 -50 10
0 -40 10
10 -40 10
10 -50 0
20 -50 0
10 -40 0
20 -40 0
10 -50 10
20 -50 10
10 -40 10
20 -40 10
20 -50 0
30 -50 0
20 -40 0
30 -40 0
20 -50 10
30 -50 10
20 -40 10
30 -40 10
30 -50 0
40 -50 0
30 -40 0
40 -40 0
30 -50 10
40 -50 10
30 -40 10
40 -40 10
40 -50 0
50 -50 0
40 -40 0
50 -40 0
40 -50 10
50 -50 10
40 -40 10
50 -40 10
-50 -40 0
-40 -40 0
-50 -30 0
-40 -30 0
-50 -40 10
-40 -40 10
-50 -30 10
-40 -30 10
-40 -40 0
-30 -40 0
-40 -30 0
-30 -30 0
-40 -40 10
-30 -40 10
-40 -30 10
-30 -30 10
-30 -40 0
-20 -40 0
-30 -30 0
-20 -30 0
-30 -40 10
-20 -40 10
-30 -30 10
-20 -30 10
-20 -40 0
-10 -40 0
-20 -30 0
-10 -30 0
-20 -40 10
-10 -40 10
-20 -30 10
-10 -30 10
-10 -40 0
0 -40 0
-10 -30 0
0 -30 0
-10 -40 10
0 -40 10
-10 -30 10
0 -30 10
0 -40 0
10 -40 0
0 -30 0
10 -30 0
0 -40 10
10 -40 10
0 -30 10
10 -30 10
10 -40 0
20 -40 0
10 -30 0
20 -30 0
10 -40 10
20 -40 10
10 -30 10
20 -30 10
20 -40 0
30 -40 0
20 -30 0
30 -30 0
20 -40 10
30 -40 10
20 -30 10
30 -30 10
30 -40 0
40 -40 0
30 -30 0
40 -30 0
30 -40 10
40 -40 10
30 -30 10
40 -30 10
40 -40 0
50 -40 0
40 -30 0
50 -30 0
40 -40 10
50 -40 10
40 -30 10
50 -30 10
-50 -30 0
-40 -30 0
-50 -20 0
-40 -20 0
-50 -30 10
-40 -30 10
-50 -20 10
-40 -20 10
-40 -30 0
-30 -30 0
-40 -20 0
-30 -20 0
-40 -30 10
-30 -30 10
-40 -20 10
-30 -20 10
-30 -30 0
-20 -30 0
-30 -20 0
-20 -20 0
-30 -30 10
-20 -30 10
-30 -20 10
-20 -20 10
-20 -30 0
-10 -30 0
-20 -20 0
-10 -20 0
-20 -30 10
-10 -30 10
-20 -20 10
-10 -20 10
-10 -30 0
0 -30 0
-10 -20 0
0 -20 0
-10 -30 10
0 -30 10
-10 -20 10
0 -20 10
0 -30 0
10 -30 0
0 -20 0
10 -20 0
0 -30 10
10 -30 10
0 -20 10
10 -20 10
10 -30 0
20 -30 0
10 -20 0
20 -20 0
10 -30 10
20 -30 10
10 -20 10
20 -20 10
20 -30 0
30 -30 0
20 -20 0
30 -20 0
20 -30 10
30 -30 10
20 -20 10
30 -20 10
30 -30 0
40 -30 0
30 -20 0
40 -20 0
30 -30 10
40 -30 10
30 -20 10
40 -20 10
40 -30 0
50 -30 0
40 -20 0
50 -20 0
40 -30 10
50 -30 10
40 -20 10
50 -20 10
-50 -20 0
-40 -20 0
-50 -10 0
-40 -10 0
-50 -20 10
-40 -20 10
-50 -10 10
-40 -10 10
-40 -20 0
-30 -20 0
-40 -10 0
-30 -10 0
-40 -20 10
-30 -20 10
-40 -10 10
-30 -10 10
-30 -20 0
-20 -20 0
-30 -10 0
-20 -10 0
-30 -20 10
-20 -20 10
-30 -10 10
-20 -10 10
-20 -20 0
-10 -20 0
-20 -10 0
-10 -10 0
-20 -20 10
-10 -20 10
-20 -10 10
-10 -10 10
-10 -20 0
0 -20 0
-10 -10 0
0 -10 0
-10 -20 10
0 -20 10
-10 -10 10
0 -10 10
0 -20 0
10 -20 0
0 -10 0
10 -10 0
0 -20 10
10 -20 10
0 -10 10
10 -10 10
10 -20 0
20 -20 0
10 -10 0
20 -10 0
10 -20 10
20 -20 10
10 -10 10
20 -10 10
20 -20 0
30 -20 0
20 -10 0
30 -10 0
20 -20 10
30 -20 10
20 -10 10
30 -10 10
30 -20 0
40 -20 0
30 -10 0
40 -10 0
30 -20 10
40 -20 10
30 -10 10
40 -10 10
40 -20 0
50 -20 0
40 -10 0
50 -10 0
40 -20 10
50 -20 10
40 -10 10
50 -10 10
10 -10 0
20 -10 0
10 0 0
20 0 0
10 -10 10
20 -10 10
10 0 10
20 0 10
20 -10 0
30 -10 0
20 0 0
30 0 0
20 -10 10
30 -10 10
20 0 10
30 0 10
30 -10 0
40 -10 0
30 0 0
40 0 0
30 -10 10
40 -10 10
30 0 10
40 0 10
40 -10 0
50 -10 0
40 0 0
50 0 0
40 -10 10
50 -10 10
40 0 10
50 0 10
10 0 0
20 0 0
10 10 0
20 10 0
10 0 10
20 0 10
10 10 10
20 10 10
20 0 0
30 0 0
20 10 0
30 10 0
20 0 10
30 0 10
20 10 10
30 10 10
30 0 0
40 0 0
30 10 0
40 10 0
30 0 10
40 0 10
30 10 10
40 10 10
40 0 0
50 0 0
40 10 0
50 10 0
40 0 10
50 0 10
40 10 10
50 10 10
-50 10 0
-40 10 0
-50 20 0
-40 20 0
-50 10 10
-40 10 10
-50 20 10
-40 20 10
-40 10 0
-30 10 0
-40 20 0
-30 20 0
-40 10 10
-30 10 10
-40 20 10
-30 20 10
-30 10 0
-20 10 0
-30 20 0
-20 20 0
-30 10 10
-20 10 10
-30 20 10
-20 20 10
-20 10 0
-10 10 0
-20 20 0
-10 20 0
-20 10 10
-10 10 10
-20 20 10
-10 20 10
-10 10 0
0 10 0
-10 20 0
0 20 0
-10 10 10
0 10 10
-10 20 10
0 20 10
0 10 0
10 10 0
0 20 0
10 20 0
0 10 10
10 10 10
0 20 10
10 20 10
10 10 0
20 10 0
10 20 0
20 20 0
10 10 10
20 10 10
10 20 10
20 20 10
20 10 0
30 10 0
20 20 0
30 20 0
20 10 10
30 10 10
20 20 10
30 20 10
30 10 0
40 10 0
30 20 0
40 20 0
30 10 10
40 10 10
30 20 10
40 20 10
40 10 0
50 10 0
40 20 0
50 20 0
40 10 10
50 10 10
40 20 10
50 20 10
-50 20 0
-40 20 0
-50 30 0
-40 30 0
-50 20 10
-40 20 10
-50 30 10
-40 30 10
-40 20 0
-30 20 0
-40 30 0
-30 30 0
-40 20 10
-30 20 10
-40 30 10
-30 30 10
-30 20 0
-20 20 0
-30 30 0
-20 30 0
-30 20 10
-20 20 10
-30 30 10
-20 30 10
-20 20 0
-10 20 0
-20 30 0
-10 30 0
-20 20 10
-10 20 10
-20 30 10
-10 30 10
-10 20 0
0 20 0
-10 30 0
0 30 0
-10 20 10
0 20 10
-10 30 10
0 30 10
0 20 0
10 20 0
0 30 0
10 30 0
0 20 10
10 20 10
0 30 10
10 30 10
10 20 0
20 20 0
10 30 0
20 30 0
10 20 10
20 20 10
10 30 10
20 30 10
20 20 0
30 20 0
20 30 0
30 30 0
20 20 10
30 20 10
20 30 10
30 30 10
30 20 0
40 20 0
30 30 0
40 30 0
30 20 10
40 20 10
30 30 10
40 30 10
40 20 0
50 20 0
40 30 0
50 30 0
40 20 10
50 20 10
40 30 10
50 30 10
-50 30 0
-40 30 0
-50 40 0
-40 40 0
-50 30 10
-40 30 10
-50 40 10
-40 40 10
-40 30 0
-30 30 0
-40 40 0
-30 40 0
-40 30 10
-30 30 10
-40 40 10
-30 40 10
-30 30 0
-20 30 0
-30 40 0
-20 40 0
-30 30 10
-20 30 10
-30 40 10
-20 40 10
-20 30 0
-10 30 0
-20 40 0
-10 40 0
-20 30 10
-10 30 10
-20 40 10
-10 40 10
-10 30 0
0 30 0
-10 40 0
0 40 0
-10 30 10
0 30 10
-10 40 10
0 40 10
0 30 0
10 30 0
0 40 0
10 40 0
0 30 10
10 30 10
0 40 10
10 40 10
10 30 0
20 30 0
10 40 0
20 40 0
10 30 10
20 30 10
10 40 10
20 40 10
20 30 0
30 30 0
20 40 0
30 40 0
20 30 10
30 30 10
20 40 10
30 40 10
30 30 0
40 30 0
30 40 0
40 40 0
30 30 10
40 30 10
30 40 10
40 40 10
40 30 0
50 30 0
40 40 0
50 40 0
40 30 10
50 30 10
40 40 10
50 40 10
-50 40 0
-40 40 0
-50 50 0
-40 50 0
-50 40 10
-40 40 10
-50 50 10
-40 50 10
-40 40 0
-30 40 0
-40 50 0
-30 50 0
-40 40 10
-30 40 10
-40 50 10
-30 50 10
-30 40 0
-20 40 0
-30 50 0
-20 50 0
-30 40 10
-20 40 10
-30 50 10
-20 50 10
-20 40 0
-10 40 0
-20 50 0
-10 50 0
-20 40 10
-10 40 10
-20 50 10
-10 50 10
-10 40 0
0 40 0
-10 50 0
0 50 0
-10 40 10
0 40 10
-10 50 10
0 50 10
0 40 0
10 40 0
0 50 0
10 50 0
0 40 10
10 40 10
0 50 10
10 50 10
10 40 0
20 40 0
10 50 0
20 50 0
10 40 10
20 40 10
10 50 10
20 50 10
20 40 0
30 40 0
20 50 0
30 50 0
20 40 10
30 40 10
20 50 10
30 50 10
30 40 0
40 40 0
30 50 0
40 50 0
30 40 10
40 40 10
30 50 10
40 50 10
40 40 0
50 40 0
40 50 0
50 50 0
40 40 10
50 40 10
40 50 10
50 50 10
-50 -50 10
-40 -50 10
-50 -40 10
-40 -40 10
-50 -50 20
-40 -50 20
-50 -40 20
-40 -40 20
-40 -50 10
-30 -50 10
-40 -40 10
-30 -40 10
-40 -50 20
-30 -50 20
-40 -40 20
-30 -40 20
-30 -50 10
-20 -50 10
-30 -40 10
-20 -40 10
-30 -50 20
-20 -50 20
-30 -40 20
-20 -40 20
-20 -50 10
-10 -50 10
-20 -40 10
-10 -40 10
-20 -50 20
-10 -50 20
-20 -40 20
-10 -40 20
-10 -50 10
0 -50 10
-10 -40 10
0 -40 10
-10 -50 20
0 -50 20
-10 -40 20
0 -40 20
0 -50 10
10 -50 10
0 -40 10
10 -40 10
0 -50 20
10 -50 20
0 -40 20
10 -40 20
10 -50 10
20 -50 10
10 -40 10
20 -40 10
10 -50 20
20 -50 20
10 -40 20
20 -40 20
20 -50 10
30 -50 10
20 -40 10
30 -40 10
20 -50 20
30 -50 20
20 -40 20
30 -40 20
30 -50 10
40 -50 10
30 -40 10
40 -40 10
30 -50 20
40 -50 20
30 -40 20
40 -40 20
40 -50 10
50 -50 10
40 -40 10
50 -40 10
40 -50 20
50 -50 20
40 -40 20
50 -40 20
-50 -40 10
-40 -40 10
-50 -30 10
-40 -30 10
-50 -40 20
-40 -40 20
-50 -30 20
-40 -30 20
-40 -40 10
-30 -40 10
-40 -30 10
-30 -30 10
-40 -40 20
-30 -40 20
-40 -30 20
-30 -30 20
-30 -40 10
-20 -40 10
-30 -30 10
-20 -30 10
-30 -40 20
-20 -40 20
-30 -30 20
-20 -30 20
-20 -40 10
-10 -40 10
-20 -30 10
-10 -30 10
-20 -40 20
-10 -40 20
-20 -30 20
-10 -30 20
-10 -40 10
0 -40 10
-10 -30 10
0 -30 10
-10 -40 20
0 -40 20
-10 -30 20
0 -30 20
0 -40 10
10 -40 10
0 -30 10
10 -30 10
0 -40 20
10 -40 20
0 -30 20
10 -30 20
10 -40 10
20 -40 10
10 -30 10
20 -30 10
10 -40 20
20 -40 20
10 -30 20
20 -30 20
20 -40 10
30 -40 10
20 -30 10
30 -30 10
20 -40 20
30 -40 20
20 -30 20
30 -30 20
30 -40 10
40 -40 10
30 -30 10
40 -30 10
30 -40 20
40 -40 20
30 -30 20
40 -30 20
40 -40 10
50 -40 10
40 -30 10
50 -30 10
40 -40 20
50 -40 20
40 -30 20
50 -30 20
-50 -30 10
-40 -30 10
-50 -20 10
-40 -20 10
-50 -30 20
-40 -30 20
-50 -20 20
-40 -20 20
-40 -30 10
-30 -30 10
-40 -20 10
-30 -20 10
-40 -30 20
-30 -30 20
-40 -20 20
-30 -20 20
-30 -30 10
-20 -30 10
-30 -20 10
-20 -20 10
-30 -30 20
-20 -30 20
-30 -20 20
-20 -20 20
-20 -30 10
-10 -30 10
-20 -20 10
-10 -20 10
-20 -30 20
-10 -30 20
-20 -20 20
-10 -20 20
-10 -30 10
0 -30 10
-10 -20 10
0 -20 10
-10 -30 20
0 -30 20
-10 -20 20
0 -20 20
0 -30 10
10 -30 10
0 -20 10
10 -20 10
0 -30 20
10 -30 20
0 -20 20
10 -20 20
10 -30 10
20 -30 10
10 -20 10
20 -20 10
10 -30 20
20 -30 20
10 -20 20
20 -20 20
20 -30 10
30 -30 10
20 -20 10
30 -20 10
20 -30 20
30 -30 20
20 -20 20
30 -20 20
30 -30 10
40 -30 10
30 -20 10
40 -20 10
30 -30 20
40 -30 20
30 -20 20
40 -20 20
40 -30 10
50 -30 10
40 -20 10
50 -20 10
40 -30 20
50 -30 20
40 -20 20
50 -20 20
-50 -20 10
-40 -20 10
-50 -10 10
-40 -10 10
-50 -20 20
-40 -20 20
-50 -10 20
-40 -10 20
-40 -20 10
-30 -20 10
-40 -10 10
-30 -10 10
-40 -20 20
-30 -20 20
-40 -10 20
-30 -10 20
-30 -20 10
-20 -20 10
-30 -10 10
-20 -10 10
-30 -20 20
-20 -20 20
-30 -10 20
-20 -10 20
-20 -20 10
-10 -20 10
-20 -10 10
-10 -10 10
-20 -20 20
-10 -20 20
-20 -10 20
-10 -10 20
-10 -20 10
0 -20 10
-10 -10 10
0 -10 10
-10 -20 20
0 -20 20
-10 -10 20
0 -10 20
0 -20 10
10 -20 10
0 -10 10
10 -10 10
0 -20 20
10 -20 20
0 -10 20
10 -10 20
10 -20 10
20 -20 10
10 -10 10
20 -10 10
10 -20 20
20 -20 20
10 -10 20
20 -10 20
20 -20 10
30 -20 10
20 -10 10
30 -10 10
20 -20 20
[...]
  <PointData Scalars="scalars">
    <DataArray type="Float32" Name="u" format="ascii">
0.307715 0.315088 0.381387 0.393221 0.30297 0.309877 0.372208 0.383216 0.315088 0.310619 0.393221 0.384137 0.309877 0.305544 0.383216 0.37453 0.310619 0.296275 0.384137 0.357248 0.305544 0.291724 0.37453 0.349254 0.296275 0.275161 0.357248 0.321291 0.291724 0.271392 0.349254 0.3153 0.275161 0.251161 0.321291 0.284346 0.271392 0.24823 0.3153 0.280096 0.251161 0.227426 0.284346 0.251009 0.24823 0.225221 0.280096 0.248063 0.227426 0.2057 0.251009 0.222648 0.225221 0.204059 0.248063 0.220576 0.2057 0.186557 0.222648 0.198949 0.204059 0.185328 0.220576 0.197464 0.186557 0.169941 0.198949 0.179176 0.185328 0.169011 0.197464 0.178088 0.169941 0.155398 0.179176 0.162668 0.169011 0.154689 0.178088 0.161853 0.381387 0.393221 0.495188 0.522125 0.372208 0.383216 0.476847 0.499559 0.393221 0.384137 0.522125 0.500131 0.383216 0.37453 0.499559 0.480175 0.384137 0.357248 0.500131 0.445051 0.37453 0.349254 0.480175 0.430113 0.357248 0.321291 0.445051 0.379753 0.349254 0.3153 0.430113 0.369854 0.321291 0.284346 0.379753 0.321464 0.3153 0.280096 0.369854 0.315449 0.284346 0.251009 0.321464 0.275243 0.280096 0.248063 0.315449 0.271399 0.251009 0.222648 0.275243 0.239019 0.248063 0.220576 0.271399 0.236479 0.222648 0.198949 0.239019 0.210404 0.220576 0.197464 0.236479 0.208656 0.198949 0.179176 0.210404 0.187463 0.197464 0.178088 0.208656 0.186222 0.179176 0.162668 0.187463 0.168792 0.178088 0.161853 0.186222 0.167886 0.495188 0.522125 0.707778 0.765307 0.476847 0.499559 0.659878 0.712065 0.522125 0.500131 0.765307 0.710114 0.499559 0.480175 0.712065 0.659364 0.500131 0.445051 0.710114 0.573622 0.480175 0.430113 0.659364 0.541029 0.445051 0.379753 0.573622 0.445152 0.430113 0.369854 0.541029 0.430301 0.379753 0.321464 0.445152 0.358164 0.369854 0.315449 0.430301 0.349963 0.321464 0.275243 0.358164 0.297209 0.315449 0.271399 0.349963 0.292473 0.275243 0.239019 0.297209 0.253084 0.271399 0.236479 0.292473 0.250083 0.239019 0.210404 0.253084 0.219844 0.236479 0.208656 0.250083 0.217859 0.210404 0.187463 0.219844 0.194065 0.208656 0.186222 0.217859 0.192694 0.187463 0.168792 0.194065 0.173555 0.186222 0.167886 0.192694 0.172575 0.707778 0.765307 1.20885 1.55082 0.659878 0.712065 0.981506 1.17835 0.765307 0.710114 1.55082 1.1548 0.712065 0.659364 1.17835 0.9531 0.710114 0.573622 1.1548 0.704755 0.659364 0.541029 0.9531 0.658313 0.573622 0.445152 0.704755 0.502396 0.541029 0.430301 0.658313 0.481564 0.445152 0.358164 0.502396 0.386008 0.430301 0.349963 0.481564 0.376459 0.358164 0.297209 0.386008 0.31341 0.349963 0.292473 0.376459 0.307648 0.297209 0.253084 0.31341 0.262839 0.292473 0.250083 0.307648 0.259444 0.253084 0.219844 0.262839 0.226107 0.250083 0.217859 0.259444 0.223962 0.219844 0.194065 0.226107 0.19835 0.217859 0.192694 0.223962 0.196889 0.194065 0.173555 0.19835 0.176587 0.192694 0.172575 0.196889 0.175558 0.31341 0.262839 0.321177 0.266189 0.307648 0.259444 0.313397 0.262829 0.262839 0.226107 0.266189 0.228328 0.259444 0.223962 0.262829 0.2261 0.226107 0.19835 0.228328 0.199835 0.223962 0.196889 0.2261 0.198346 0.19835 0.176587 0.199835 0.17763 0.196889 0.175558 0.198346 0.176583 0.321177 0.266189 0.31341 0.262839 0.313397 0.262829 0.307648 0.259444 0.266189 0.228328 0.262839 0.226107 0.262829 0.2261 0.259444 0.223962 0.228328 0.199835 0.226107 0.19835 0.2261 0.198346 0.223962 0.196889 0.199835 0.17763 0.19835 0.176587 0.198346 0.176583 0.196889 0.175558 1.20899 1.55101 0.707783 0.765306 0.981452 1.17825 0.659884 0.712077 1.55101 1.15492 0.765306 0.710116 1.17825 0.953048 0.712077 0.659371 1.15492 0.704749 0.710116 0.57363 0.953048 0.658324 0.659371 0.541029 0.704749 0.502399 0.57363 0.445152 0.658324 0.481563 0.541029 0.430302 0.502399 0.386008 0.445152 0.358165 0.481563 0.376459 0.430302 0.349963 0.386008 0.31341 0.358165 0.297209 0.376459 0.307648 0.349963 0.292473 0.31341 0.262839 0.297209 0.253084 0.307648 0.259444 0.292473 0.250083 0.262839 0.226107 0.253084 0.219844 0.259444 0.223962 0.250083 0.217859 0.226107 0.19835 0.219844 0.194065 0.223962 0.196889 0.217859 0.192694 0.19835 0.176587 0.194065 0.173555 0.196889 0.175558 0.192694 0.172575 0.707783 0.765306 0.49519 0.522128 0.659884 0.712077 0.476848 0.499559 0.765306 0.710116 0.522128 0.500133 0.712077 0.659371 0.499559 0.480176 0.710116 0.57363 0.500133 0.445052 0.659371 0.541029 0.480176 0.430114 0.57363 0.445152 0.445052 0.379754 0.541029 0.430302 0.430114 0.369854 0.445152 0.358165 0.379754 0.321464 0.430302 0.349963 0.369854 0.31545 0.358165 0.297209 0.321464 0.275243 0.349963 0.292473 0.31545 0.271399 0.297209 0.253084 0.275243 0.239019 0.292473 0.250083 0.271399 0.236479 0.253084 0.219844 0.239019 0.210404 0.250083 0.217859 0.236479 0.208656 0.219844 0.194065 0.210404 0.187463 0.217859 0.192694 0.208656 0.186222 0.194065 0.173555 0.187463 0.168792 0.192694 0.172575 0.186222 0.167886 0.49519 0.522128 0.381388 0.393222 0.476848 0.499559 0.372208 0.383216 0.522128 0.500133 0.393222 0.384138 0.499559 0.480176 0.383216 0.374531 0.500133 0.445052 0.384138 0.357248 0.480176 0.430114 0.374531 0.349255 0.445052 0.379754 0.357248 0.321292 0.430114 0.369854 0.349255 0.3153 0.379754 0.321464 0.321292 0.284346 0.369854 0.31545 0.3153 0.280096 0.321464 0.275243 0.284346 0.251009 0.31545 0.271399 0.280096 0.248063 0.275243 0.239019 0.251009 0.222648 0.271399 0.236479 0.248063 0.220576 0.239019 0.210404 0.222648 0.198949 0.236479 0.208656 0.220576 0.197464 0.210404 0.187463 0.198949 0.179176 0.208656 0.186222 0.197464 0.178088 0.187463 0.168792 0.179176 0.162668 0.186222 0.167886 0.178088 0.161853 0.381388 0.393222 0.307716 0.315088 0.372208 0.383216 0.30297 0.309877 0.393222 0.384138 0.315088 0.310619 0.383216 0.374531 0.309877 0.305545 0.384138 0.357248 0.310619 0.296275 0.374531 0.349255 0.305545 0.291725 0.357248 0.321292 0.296275 0.275161 0.349255 0.3153 0.291725 0.271392 0.321292 0.284346 0.275161 0.251161 0.3153 0.280096 0.271392 0.24823 0.284346 0.251009 0.251161 0.227427 0.280096 0.248063 0.24823 0.225221 0.251009 0.222648 0.227427 0.2057 0.248063 0.220576 0.225221 0.204059 0.222648 0.198949 0.2057 0.186557 0.220576 0.197464 0.204059 0.185328 0.198949 0.179176 0.186557 0.169941 0.197464 0.178088 0.185328 0.169011 0.179176 0.162668 0.169941 0.155398 0.178088 0.161853 0.169011 0.154689 0.30297 0.309877 0.372208 0.383216 0.289516 0.295339 0.347537 0.356288 0.309877 0.305544 0.383216 0.37453 0.295339 0.291365 0.356288 0.348924 0.305544 0.291724 0.37453 0.349254 0.291365 0.279012 0.348924 0.327812 0.291724 0.271392 0.349254 0.3153 0.279012 0.260839 0.327812 0.298942 0.271392 0.24823 0.3153 0.280096 0.260839 0.239954 0.298942 0.268339 0.24823 0.225221 0.280096 0.248063 0.239954 0.218945 0.268339 0.239765 0.225221 0.204059 0.248063 0.220576 0.218945 0.199346 0.239765 0.21467 0.204059 0.185328 0.220576 0.197464 0.199346 0.181774 0.21467 0.193188 0.185328 0.169011 0.197464 0.178088 0.181774 0.166304 0.193188 0.174932 0.169011 0.154689 0.178088 0.161853 0.166304 0.152615 0.174932 0.159478 0.372208 0.383216 0.476847 0.499559 0.347537 0.356288 0.428924 0.444654 0.383216 0.37453 0.499559 0.480175 0.356288 0.348924 0.444654 0.429998 0.37453 0.349254 0.480175 0.430113 0.348924 0.327812 0.429998 0.391513 0.349254 0.3153 0.430113 0.369854 0.327812 0.298942 0.391513 0.344056 0.3153 0.280096 0.369854 0.315449 0.298942 0.268339 0.344056 0.299019 0.280096 0.248063 0.315449 0.271399 0.268339 0.239765 0.299019 0.260708 0.248063 0.220576 0.271399 0.236479 0.239765 0.21467 0.260708 0.229282 0.220576 0.197464 0.236479 0.208656 0.21467 0.193188 0.229282 0.203649 0.197464 0.178088 0.208656 0.186222 0.193188 0.174932 0.203649 0.182633 0.178088 0.161853 0.186222 0.167886 0.174932 0.159478 0.182633 0.165248 0.476847 0.499559 0.659878 0.712065 0.428924 0.444654 0.543114 0.575431 0.499559 0.480175 0.712065 0.659364 0.444654 0.429998 0.575431 0.541966 0.480175 0.430113 0.659364 0.541029 0.429998 0.391513 0.541966 0.468577 0.430113 0.369854 0.541029 0.430301 0.391513 0.344056 0.468577 0.391713 0.369854 0.315449 0.430301 0.349963 0.344056 0.299019 0.391713 0.328241 0.315449 0.271399 0.349963 0.292473 0.299019 0.260708 0.328241 0.279323 0.271399 0.236479 0.292473 0.250083 0.260708 0.229282 0.279323 0.241654 0.236479 0.208656 0.250083 0.217859 0.229282 0.203649 0.241654 0.212196 0.208656 0.186222 0.217859 0.192694 0.203649 0.182633 0.212196 0.188739 0.186222 0.167886 0.192694 0.172575 0.182633 0.165248 0.188739 0.169724 0.659878 0.712065 0.981506 1.17835 0.543114 0.575431 0.659757 0.712268 0.712065 0.659364 1.17835 0.9531 0.575431 0.541966 0.712268 0.659502 0.659364 0.541029 0.9531 0.658313 0.541966 0.468577 0.659502 0.541055 0.541029 0.430301 0.658313 0.481564 0.468577 0.391713 0.541055 0.430275 0.430301 0.349963 0.481564 0.376459 0.391713 0.328241 0.430275 0.349921 0.349963 0.292473 0.376459 0.307648 0.328241 0.279323 0.349921 0.292431 0.292473 0.250083 0.307648 0.259444 0.279323 0.241654 0.292431 0.250051 0.250083 0.217859 0.259444 0.223962 0.241654 0.212196 0.250051 0.21784 0.217859 0.192694 0.223962 0.196889 0.212196 0.188739 0.21784 0.192686 0.192694 0.172575 0.196889 0.175558 0.188739 0.169724 0.192686 0.172568 0.981506 1.17835 1.20923 1.55319 0.659757 0.712268 0.707497 0.765405 1.17835 0.9531 1.55319 1.15542 0.712268 0.659502 0.765405 0.710321 0.9531 0.658313 1.15542 0.704736 0.659502 0.541055 0.710321 0.573678 0.658313 0.481564 0.704736 0.502395 0.541055 0.430275 0.573678 0.44512 0.481564 0.376459 0.502395 0.385993 0.430275 0.349921 0.44512 0.35811 0.376459 0.307648 0.385993 0.313397 0.349921 0.292431 0.35811 0.297154 0.307648 0.259444 0.313397 0.262829 0.292431 0.250051 0.297154 0.253042 0.259444 0.223962 0.262829 0.2261 0.250051 0.21784 0.253042 0.219819 0.223962 0.196889 0.2261 0.198346 0.21784 0.192686 0.219819 0.194053 0.196889 0.175558 0.198346 0.176583 0.192686 0.172568 0.194053 0.173544 1.20923 1.55319 0.981452 1.17825 0.707497 0.765405 0.659746 0.712261 1.55319 1.15542 1.17825 0.953048 0.765405 0.710321 0.712261 0.659496 1.15542 0.704736 0.953048 0.658324 0.710321 0.573678 0.659496 0.541051 0.704736 0.502395 0.658324 0.481563 0.573678 0.44512 0.541051 0.430276 0.502395 0.385993 0.481563 0.376459 0.44512 0.35811 0.430276 0.349921 0.385993 0.313397 0.376459 0.307648 0.35811 0.297154 0.349921 0.292431 0.313397 0.262829 0.307648 0.259444 0.297154 0.253042 0.292431 0.250051 0.262829 0.2261 0.259444 0.223962 0.253042 0.219819 0.250051 0.21784 0.2261 0.198346 0.223962 0.196889 0.219819 0.194053 0.21784 0.192686 0.198346 0.176583 0.196889 0.175558 0.194053 0.173544 0.192686 0.172568 0.981452 1.17825 0.659884 0.712077 0.659746 0.712261 0.543105 0.57542 1.17825 0.953048 0.712077 0.659371 0.712261 0.659496 0.57542 0.541959 0.953048 0.658324 0.659371 0.541029 0.659496 0.541051 0.541959 0.468576 0.658324 0.481563 0.541029 0.430302 0.541051 0.430276 0.468576 0.391713 0.481563 0.376459 0.430302 0.349963 0.430276 0.349921 0.391713 0.328241 0.376459 0.307648 0.349963 0.292473 0.349921 0.292431 0.328241 0.279323 0.307648 0.259444 0.292473 0.250083 0.292431 0.250051 0.279323 0.241654 0.259444 0.223962 0.250083 0.217859 0.250051 0.21784 0.241654 0.212196 0.223962 0.196889 0.217859 0.192694 0.21784 0.192686 0.212196 0.188739 0.196889 0.175558 0.192694 0.172575 0.192686 0.172568 0.188739 0.169724 0.659884 0.712077 0.476848 0.499559 0.543105 0.57542 0.428924 0.444654 0.712077 0.659371 0.499559 0.480176 0.57542 0.541959 0.444654 0.429998 0.659371 0.541029 0.480176 0.430114 0.541959 0.468576 0.429998 0.391512 0.541029 0.430302 0.430114 0.369854 0.468576 0.391713 0.391512 0.344056 0.430302 0.349963 0.369854 0.31545 0.391713 0.328241 0.344056 0.29902 0.349963 0.292473 0.31545 0.271399 0.328241 0.279323 0.29902 0.260708 0.292473 0.250083 0.271399 0.236479 0.279323 0.241654 0.260708 0.229282 0.250083 0.217859 0.236479 0.208656 0.241654 0.212196 0.229282 0.203649 0.217859 0.192694 0.208656 0.186222 0.212196 0.188739 0.203649 0.182633 0.192694 0.172575 0.186222 0.167886 0.188739 0.169724 0.182633 0.165248 0.476848 0.499559 0.372208 0.383216 0.428924 0.444654 0.347537 0.356288 0.499559 0.480176 0.383216 0.374531 0.444654 0.429998 0.356288 0.348923 0.480176 0.430114 0.374531 0.349255 0.429998 0.391512 0.348923 0.327812 0.430114 0.369854 0.349255 0.3153 0.391512 0.344056 0.327812 0.298942 0.369854 0.31545 0.3153 0.280096 0.344056 0.29902 0.298942 0.268339 0.31545 0.271399 0.280096 0.248063 0.29902 0.260708 0.268339 0.239765 0.271399 0.236479 0.248063 0.220576 0.260708 0.229282 0.239765 0.21467 0.236479 0.208656 0.220576 0.197464 0.229282 0.203649 0.21467 0.193188 0.208656 0.186222 0.197464 0.178088 0.203649 0.182633 0.193188 0.174932 0.186222 0.167886 0.178088 0.161853 0.182633 0.165248 0.174932 0.159478 0.372208 0.383216 0.30297 0.309877 0.347537 0.356288 0.289515 0.295339 0.383216 0.374531 0.309877 0.305545 0.356288 0.348923 0.295339 0.291365 0.374531 0.349255 0.305545 0.291725 0.348923 0.327812 0.291365 0.279012 0.349255 0.3153 0.291725 0.271392 0.327812 0.298942 0.279012 0.260839 0.3153 0.280096 0.271392 0.24823 0.298942 0.268339 0.260839 0.239954 0.280096 0.248063 0.24823 0.225221 0.268339 0.239765 0.239954 0.218945 0.248063 0.220576 0.225221 0.204059 0.239765 0.21467 0.218945 0.199346 0.220576 0.197464 0.204059 0.185328 0.21467 0.193188 0.199346 0.181774 0.197464 0.178088 0.185328 0.169011 0.193188 0.174932 0.181774 0.166304 0.178088 0.161853 0.169011 0.154689 0.174932 0.159478 0.166304 0.152615 0.289516 0.295339 0.347537 0.356288 0.269733 0.274268 0.314115 0.320406 0.295339 0.291365 0.356288 0.348924 0.274268 0.270881 0.320406 0.314801 0.291365 0.279012 0.348924 0.327812 0.270881 0.260622 0.314801 0.298725 0.279012 0.260839 0.327812 0.298942 0.260622 0.245427 0.298725 0.276206 0.260839 0.239954 0.298942 0.268339 0.245427 0.227695 0.276206 0.251484 0.239954 0.218945 0.268339 0.239765 0.227695 0.209487 0.251484 0.227514 0.218945 0.199346 0.239765 0.21467 0.209487 0.192128 0.227514 0.205747 0.199346 0.181774 0.21467 0.193188 0.192128 0.176254 0.205747 0.186609 0.181774 0.166304 0.193188 0.174932 0.176254 0.162051 0.186609 0.170007 0.166304 0.152615 0.174932 0.159478 0.162051 0.149324 0.170007 0.155727 0.347537 0.356288 0.428924 0.444654 0.314115 0.320406 0.369013 0.379121 0.356288 0.348924 0.444654 0.429998 0.320406 0.314801 0.379121 0.369484 0.348924 0.327812 0.429998 0.391513 0.314801 0.298725 0.369484 0.343866 0.327812 0.298942 0.391513 0.344056 0.298725 0.276206 0.343866 0.310386 0.298942 0.268339 0.344056 0.299019 0.276206 0.251484 0.310386 0.276224 0.268339 0.239765 0.299019 0.260708 0.251484 0.227514 0.276224 0.245228 0.239765 0.21467 0.260708 0.229282 0.227514 0.205747 0.245228 0.218542 0.21467 0.193188 0.229282 0.203649 0.205747 0.186609 0.218542 0.196009 0.193188 0.174932 0.203649 0.182633 0.186609 0.170007 0.196009 0.177063 0.174932 0.159478 0.182633 0.165248 0.170007 0.155727 0.177063 0.161097 0.428924 0.444654 0.543114 0.575431 0.369013 0.379121 0.429001 0.444748 0.444654 0.429998 0.575431 0.541966 0.379121 0.369484 0.444748 0.430046 0.429998 0.391513 0.541966 0.468577 0.369484 0.343866 0.430046 0.391487 0.391513 0.344056 0.468577 0.391713 0.343866 0.310386 0.391487 0.34398 0.344056 0.299019 0.391713 0.328241 0.310386 0.276224 0.34398 0.298927 0.299019 0.260708 0.328241 0.279323 0.276224 0.245228 0.298927 0.260626 0.260708 0.229282 0.279323 0.241654 0.245228 0.218542 0.260626 0.229225 0.229282 0.203649 0.241654 0.212196 0.218542 0.196009 0.229225 0.203621 0.203649 0.182633 0.212196 0.188739 0.196009 0.177063 0.203621 0.182627 0.182633 0.165248 0.188739 0.169724 0.177063 0.161097 0.182627 0.16525 0.543114 0.575431 0.659757 0.712268 0.429001 0.444748 0.476928 0.49972 0.575431 0.541966 0.712268 0.659502 0.444748 0.430046 0.49972 0.480293 0.541966 0.468577 0.659502 0.541055 0.430046 0.391487 0.480293 0.430112 0.468577 0.391713 0.541055 0.430275 0.391487 0.34398 0.430112 0.369759 0.391713 0.328241 0.430275 0.349921 0.34398 0.298927 0.369759 0.315317 0.328241 0.279323 0.349921 0.292431 0.298927 0.260626 0.315317 0.271276 0.279323 0.241654 0.292431 0.250051 0.260626 0.229225 0.271276 0.236391 0.241654 0.212196 0.250051 0.21784 0.229225 0.203621 0.236391 0.208612 0.212196 0.188739 0.21784 0.192686 0.203621 0.182627 0.208612 0.18621 0.188739 0.169724 0.192686 0.172568 0.182627 0.16525 0.18621 0.167883 0.659757 0.712268 0.707497 0.765405 0.476928 0.49972 0.495239 0.522332 0.712268 0.659502 0.765405 0.710321 0.49972 0.480293 0.522332 0.500279 0.659502 0.541055 0.710321 0.573678 0.480293 0.430112 0.500279 0.445065 0.541055 0.430275 0.573678 0.44512 0.430112 0.369759 0.445065 0.379657 0.430275 0.349921 0.44512 0.35811 0.369759 0.315317 0.379657 0.321321 0.349921 0.292431 0.35811 0.297154 0.315317 0.271276 0.321321 0.275108 0.292431 0.250051 0.297154 0.253042 0.271276 0.236391 0.275108 0.238921 0.250051 0.21784 0.253042 0.219819 0.236391 0.208612 0.238921 0.210354 0.21784 0.192686 0.219819 0.194053 0.208612 0.18621 0.210354 0.187448 0.192686 0.172568 0.194053 0.173544 0.18621 0.167883 0.187448 0.168786 0.707497 0.765405 0.659746 0.712261 0.495239 0.522332 0.476925 0.499717 0.765405 0.710321 0.712261 0.659496 0.522332 0.500279 0.499717 0.480291 0.710321 0.573678 0.659496 0.541051 0.500279 0.445065 0.480291 0.430111 0.573678 0.44512 0.541051 0.430276 0.445065 0.379657 0.430111 0.369759 0.44512 0.35811 0.430276 0.349921 0.379657 0.321321 0.369759 0.315317 0.35811 0.297154 0.349921 0.292431 0.321321 0.275108 0.315317 0.271276 0.297154 0.253042 0.292431 0.250051 0.275108 0.238921 0.271276 0.236391 0.253042 0.219819 0.250051 0.21784 0.238921 0.210354 0.236391 0.208612 0.219819 0.194053 0.21784 0.192686 0.210354 0.187448 0.208612 0.18621 0.194053 0.173544 0.192686 0.172568 0.187448 0.168786 0.18621 0.167883 0.659746 0.712261 0.543105 0.57542 0.476925 0.499717 0.428997 0.444745 0.712261 0.659496 0.57542 0.541959 0.499717 0.480291 0.444745 0.430043 0.659496 0.541051 0.541959 0.468576 0.480291 0.430111 0.430043 0.391485 0.541051 0.430276 0.468576 0.391713 0.430111 0.369759 0.391485 0.34398 0.430276 0.349921 0.391713 0.328241 0.369759 0.315317 0.34398 0.298927 0.349921 0.292431 0.328241 0.279323 0.315317 0.271276 0.298927 0.260626 0.292431 0.250051 0.279323 0.241654 0.271276 0.236391 0.260626 0.229225 0.250051 0.21784 0.241654 0.212196 0.236391 0.208612 0.229225 0.203621 0.21784 0.192686 0.212196 0.188739 0.208612 0.18621 0.203621 0.182627 0.192686 0.172568 0.188739 0.169724 0.18621 0.167883 0.182627 0.16525 0.543105 0.57542 0.428924 0.444654 0.428997 0.444745 0.369011 0.379119 0.57542 0.541959 0.444654 0.429998 0.444745 0.430043 0.379119 0.369483 0.541959 0.468576 0.429998 0.391512 0.430043 0.391485 0.369483 0.343865 0.468576 0.391713 0.391512 0.344056 0.391485 0.34398 0.343865 0.310386 0.391713 0.328241 0.344056 0.29902 0.34398 0.298927 0.310386 0.276224 0.328241 0.279323 0.29902 0.260708 0.298927 0.260626 0.276224 0.245228 0.279323 0.241654 0.260708 0.229282 0.260626 0.229225 0.245228 0.218542 0.241654 0.212196 0.229282 0.203649 0.229225 0.203621 0.218542 0.196009 0.212196 0.188739 0.203649 0.182633 0.203621 0.182627 0.196009 0.177063 0.188739 0.169724 0.182633 0.165248 0.182627 0.16525 0.177063 0.161097 0.428924 0.444654 0.347537 0.356288 0.369011 0.379119 0.314114 0.320405 0.444654 0.429998 0.356288 0.348923 0.379119 0.369483 0.320405 0.314801 0.429998 0.391512 0.348923 0.327812 0.369483 0.343865 0.314801 0.298725 0.391512 0.344056 0.327812 0.298942 0.343865 0.310386 0.298725 0.276206 0.344056 0.29902 0.298942 0.268339 0.310386 0.276224 0.276206 0.251484 0.29902 0.260708 0.268339 0.239765 0.276224 0.245228 0.251484 0.227514 0.260708 0.229282 0.239765 0.21467 0.245228 0.218542 0.227514 0.205747 0.229282 0.203649 0.21467 0.193188 0.218542 0.196009 0.205747 0.186609 0.203649 0.182633 0.193188 0.174932 0.196009 0.177063 0.186609 0.170007 0.182633 0.165248 0.174932 0.159478 0.177063 0.161097 0.170007 0.155727 0.347537 0.356288 0.289515 0.295339 0.314114 0.320405 0.269733 0.274268 0.356288 0.348923 0.295339 0.291365 0.320405 0.314801 0.274268 