<?xml version="1.0" ?> 
<!-- 
# vtk DataFile Version 3.0
#This file was generated by the deal.II library on 16:49:38 at 2019/11/27
-->
<VTKFile type="UnstructuredGrid" version="0.1" byte_order="LittleEndian">
<UnstructuredGrid>
<Piece NumberOfPoints="9512" NumberOfCells="1189" >
  <Points>
    <DataArray type="Float32" NumberOfComponents="3" format="ascii">
-50 -50 0
-40 -50 0
-50 -40 0
-40 -40 0
-50 -50 10
-40 -50 10
-50 -40 10
-40 -40 10
-40 -50 0
-30 -50 0
-40 -40 0
-30 -40 0
-40 -50 10
-30 -50 10
-40 -40 10
-30 -40 10
-30 -50 0
-20 -50 0
-30 -40 0
-20 -40 0
-30 -50 10
-20 -50 10
-30 -40 10
-20 -40 10
-20 -50 0
-10 -50 0
-20 -40 0
-10 -40 0
-20 -50 10
-10 -50 10
-20 -40 10
-10 -40 10
-10 -50 0
0 -50 0
-10 -40 0
0 -40 0
-10 -50 10
0 -50 10
-10 -40 10
0 -40 10
0 -50 0
10 -50 0
0 -40 0
10 -40 0
0 -50 10
10 -50 10
0 -40 10
10 -40 10
10 -50 0
20 -50 0
10 -40 0
20 -40 0
10 -50 10
20 -50 10
10 -40 10
20 -40 10
20 -50 0
30 -50 0
20 -40 0
30 -40 0
20 -50 10
30 -50 10
20 -40 10
30 -40 10
30 -50 0
40 -50 0
30 -40 0
40 -40 0
30 -50 10
40 -50 10
30 -40 10
40 -40 10
40 -50 0
50 -50 0
40 -40 0
50 -40 0
40 -50 10
50 -50 10
40 -40 10
50 -40 10
-50 -40 0
-40 -40 0
-50 -30 0
-40 -30 0
-50 -40 10
-40 -40 10
-50 -30 10
-40 -30 10
-40 -40 0
-30 -40 0
-40 -30 0
-30 -30 0
-40 -40 10
-30 -40 10
-40 -30 10
-30 -30 10
-30 -40 0
-20 -40 0
-30 -30 0
-20 -30 0
-30 -40 10
-20 -40 10
-30 -30 10
-20 -30 10
-20 -40 0
-10 -40 0
-20 -30 0
-10 -30 0
-20 -40 10
-10 -40 10
-20 -30 10
-10 -30 10
-10 -40 0
0 -40 0
-10 -30 0
0 -30 0
-10 -40 10
0 -40 10
-10 -30 10
0 -30 10
0 -40 0
10 -40 0
0 -30 0
10 -30 0
0 -40 10
10 -40 10
0 -30 10
10 -30 10
10 -40 0
20 -40 0
10 -30 0
20 -30 0
10 -40 10
20 -40 10
10 -30 10
20 -30 10
20 -40 0
30 -40 0
20 -30 0
30 -30 0
20 -40 10
30 -40 10
20 -30 10
30 -30 10
30 -40 0
40 -40 0
30 -30 0
40 -30 0
30 -40 10
40 -40 10
30 -30 10
40 -30 10
40 -40 0
50 -40 0
40 -30 0
50 -30 0
40 -40 10
50 -40 10
40 -30 10
50 -30 10
-50 -30 0
-40 -30 0
-50 -20 0
-40 -20 0
-50 -30 10
-40 -30 10
-50 -20 10
-40 -20 10
-40 -30 0
-30 -30 0
-40 -20 0
-30 -20 0
-40 -30 10
-30 -30 10
-40 -20 10
-30 -20 10
-30 -30 0
-20 -30 0
-30 -20 0
-20 -20 0
-30 -30 10
-20 -30 10
-30 -20 10
-20 -20 10
-20 -30 0
-10 -30 0
-20 -20 0
-10 -20 0
-20 -30 10
-10 -30 10
-20 -20 10
-10 -20 10
-10 -30 0
0 -30 0
-10 -20 0
0 -20 0
-10 -30 10
0 -30 10
-10 -20 10
0 -20 10
0 -30 0
10 -30 0
0 -20 0
10 -20 0
0 -30 10
10 -30 10
0 -20 10
10 -20 10
10 -30 0
20 -30 0
10 -20 0
20 -20 0
10 -30 10
20 -30 10
10 -20 10
20 -20 10
20 -30 0
30 -30 0
20 -20 0
30 -20 0
20 -30 10
30 -30 10
20 -20 10
30 -20 10
30 -30 0
40 -30 0
30 -20 0
40 -20 0
30 -30 10
40 -30 10
30 -20 10
40 -20 10
40 -30 0
50 -30 0
40 -20 0
50 -20 0
40 -30 10
50 -30 10
40 -20 10
50 -20 10
-50 -20 0
-40 -20 0
-50 -10 0
-40 -10 0
-50 -20 10
-40 -20 10
-50 -10 10
-40 -10 10
-40 -20 0
-30 -20 0
-40 -10 0
-30 -10 0
-40 -20 10
-30 -20 10
-40 -10 10
-30 -10 10
-30 -20 0
-20 -20 0
-30 -10 0
-20 -10 0
-30 -20 10
-20 -20 10
-30 -10 10
-20 -10 10
-20 -20 0
-10 -20 0
-20 -10 0
-10 -10 0
-20 -20 10
-10 -20 10
-20 -10 10
-10 -10 10
-10 -20 0
0 -20 0
-10 -10 0
0 -10 0
-10 -20 10
0 -20 10
-10 -10 10
0 -10 10
0 -20 0
10 -20 0
0 -10 0
10 -10 0
0 -20 10
10 -20 10
0 -10 10
10 -10 10
10 -20 0
20 -20 0
10 -10 0
20 -10 0
10 -20 10
20 -20 10
10 -10 10
20 -10 10
20 -20 0
30 -20 0
20 -10 0
30 -10 0
20 -20 10
30 -20 10
20 -10 10
30 -10 10
30 -20 0
40 -20 0
30 -10 0
40 -10 0
30 -20 10
40 -20 10
30 -10 10
40 -10 10
40 -20 0
50 -20 0
40 -10 0
50 -10 0
40 -20 10
50 -20 10
40 -10 10
50 -10 10
-50 -10 0
-40 -10 0
-50 0 0
-40 0 0
-50 -10 10
-40 -10 10
-50 0 10
-40 0 10
20 -10 0
30 -10 0
20 0 0
30 0 0
20 -10 10
30 -10 10
20 0 10
30 0 10
30 -10 0
40 -10 0
30 0 0
40 0 0
30 -10 10
40 -10 10
30 0 10
40 0 10
40 -10 0
50 -10 0
40 0 0
50 0 0
40 -10 10
50 -10 10
40 0 10
50 0 10
-50 0 0
-40 0 0
-50 10 0
-40 10 0
-50 0 10
-40 0 10
-50 10 10
-40 10 10
20 0 0
30 0 0
20 10 0
30 10 0
20 0 10
30 0 10
20 10 10
30 10 10
30 0 0
40 0 0
30 10 0
40 10 0
30 0 10
40 0 10
30 10 10
40 10 10
40 0 0
50 0 0
40 10 0
50 10 0
40 0 10
50 0 10
40 10 10
50 10 10
-50 10 0
-40 10 0
-50 20 0
-40 20 0
-50 10 10
-40 10 10
-50 20 10
-40 20 10
-40 10 0
-30 10 0
-40 20 0
-30 20 0
-40 10 10
-30 10 10
-40 20 10
-30 20 10
-30 10 0
-20 10 0
-30 20 0
-20 20 0
-30 10 10
-20 10 10
-30 20 10
-20 20 10
-20 10 0
-10 10 0
-20 20 0
-10 20 0
-20 10 10
-10 10 10
-20 20 10
-10 20 10
-10 10 0
0 10 0
-10 20 0
0 20 0
-10 10 10
0 10 10
-10 20 10
0 20 10
0 10 0
10 10 0
0 20 0
10 20 0
0 10 10
10 10 10
0 20 10
10 20 10
10 10 0
20 10 0
10 20 0
20 20 0
10 10 10
20 10 10
10 20 10
20 20 10
20 10 0
30 10 0
20 20 0
30 20 0
20 10 10
30 10 10
20 20 10
30 20 10
30 10 0
40 10 0
30 20 0
40 20 0
30 10 10
40 10 10
30 20 10
40 20 10
40 10 0
50 10 0
40 20 0
50 20 0
40 10 10
50 10 10
40 20 10
50 20 10
-50 20 0
-40 20 0
-50 30 0
-40 30 0
-50 20 10
-40 20 10
-50 30 10
-40 30 10
-40 20 0
-30 20 0
-40 30 0
-30 30 0
-40 20 10
-30 20 10
-40 30 10
-30 30 10
-30 20 0
-20 20 0
-30 30 0
-20 30 0
-30 20 10
-20 20 10
-30 30 10
-20 30 10
-20 20 0
-10 20 0
-20 30 0
-10 30 0
-20 20 10
-10 20 10
-20 30 10
-10 30 10
-10 20 0
0 20 0
-10 30 0
0 30 0
-10 20 10
0 20 10
-10 30 10
0 30 10
0 20 0
10 20 0
0 30 0
10 30 0
0 20 10
10 20 10
0 30 10
10 30 10
10 20 0
20 20 0
10 30 0
20 30 0
10 20 10
20 20 10
10 30 10
20 30 10
20 20 0
30 20 0
20 30 0
30 30 0
20 20 10
30 20 10
20 30 10
30 30 10
30 20 0
40 20 0
30 30 0
40 30 0
30 20 10
40 20 10
30 30 10
40 30 10
40 20 0
50 20 0
40 30 0
50 30 0
40 20 10
50 20 10
40 30 10
50 30 10
-50 30 0
-40 30 0
-50 40 0
-40 40 0
-50 30 10
-40 30 10
-50 40 10
-40 40 10
-40 30 0
-30 30 0
-40 40 0
-30 40 0
-40 30 10
-30 30 10
-40 40 10
-30 40 10
-30 30 0
-20 30 0
-30 40 0
-20 40 0
-30 30 10
-20 30 10
-30 40 10
-20 40 10
-20 30 0
-10 30 0
-20 40 0
-10 40 0
-20 30 10
-10 30 10
-20 40 10
-10 40 10
-10 30 0
0 30 0
-10 40 0
0 40 0
-10 30 10
0 30 10
-10 40 10
0 40 10
0 30 0
10 30 0
0 40 0
10 40 0
0 30 10
10 30 10
0 40 10
10 40 10
10 30 0
20 30 0
10 40 0
20 40 0
10 30 10
20 30 10
10 40 10
20 40 10
20 30 0
30 30 0
20 40 0
30 40 0
20 30 10
30 30 10
20 40 10
30 40 10
30 30 0
40 30 0
30 40 0
40 40 0
30 30 10
40 30 10
30 40 10
40 40 10
40 30 0
50 30 0
40 40 0
50 40 0
40 30 10
50 30 10
40 40 10
50 40 10
-50 40 0
-40 40 0
-50 50 0
-40 50 0
-50 40 10
-40 40 10
-50 50 10
-40 50 10
-40 40 0
-30 40 0
-40 50 0
-30 50 0
-40 40 10
-30 40 10
-40 50 10
-30 50 10
-30 40 0
-20 40 0
-30 50 0
-20 50 0
-30 40 10
-20 40 10
-30 50 10
-20 50 10
-20 40 0
-10 40 0
-20 50 0
-10 50 0
-20 40 10
-10 40 10
-20 50 10
-10 50 10
-10 40 0
0 40 0
-10 50 0
0 50 0
-10 40 10
0 40 10
-10 50 10
0 50 10
0 40 0
10 40 0
0 50 0
10 50 0
0 40 10
10 40 10
0 50 10
10 50 10
10 40 0
20 40 0
10 50 0
20 50 0
10 40 10
20 40 10
10 50 10
20 50 10
20 40 0
30 40 0
20 50 0
30 50 0
20 40 10
30 40 10
20 50 10
30 50 10
30 40 0
40 40 0
30 50 0
40 50 0
30 40 10
40 40 10
30 50 10
40 50 10
40 40 0
50 40 0
40 50 0
50 50 0
40 40 10
50 40 10
40 50 10
50 50 10
-50 -50 10
-40 -50 10
-50 -40 10
-40 -40 10
-50 -50 20
-40 -50 20
-50 -40 20
-40 -40 20
-40 -50 10
-30 -50 10
-40 -40 10
-30 -40 10
-40 -50 20
-30 -50 20
-40 -40 20
-30 -40 20
-30 -50 10
-20 -50 10
-30 -40 10
-20 -40 10
-30 -50 20
-20 -50 20
-30 -40 20
-20 -40 20
-20 -50 10
-10 -50 10
-20 -40 10
-10 -40 10
-20 -50 20
-10 -50 20
-20 -40 20
-10 -40 20
-10 -50 10
0 -50 10
-10 -40 10
0 -40 10
-10 -50 20
0 -50 20
-10 -40 20
0 -40 20
0 -50 10
10 -50 10
0 -40 10
10 -40 10
0 -50 20
10 -50 20
0 -40 20
10 -40 20
10 -50 10
20 -50 10
10 -40 10
20 -40 10
10 -50 20
20 -50 20
10 -40 20
20 -40 20
20 -50 10
30 -50 10
20 -40 10
30 -40 10
20 -50 20
30 -50 20
20 -40 20
30 -40 20
30 -50 10
40 -50 10
30 -40 10
40 -40 10
30 -50 20
40 -50 20
30 -40 20
40 -40 20
40 -50 10
50 -50 10
40 -40 10
50 -40 10
40 -50 20
50 -50 20
40 -40 20
50 -40 20
-50 -40 10
-40 -40 10
-50 -30 10
-40 -30 10
-50 -40 20
-40 -40 20
-50 -30 20
-40 -30 20
-40 -40 10
-30 -40 10
-40 -30 10
-30 -30 10
-40 -40 20
-30 -40 20
-40 -30 20
-30 -30 20
-30 -40 10
-20 -40 10
-30 -30 10
-20 -30 10
-30 -40 20
-20 -40 20
-30 -30 20
-20 -30 20
-20 -40 10
-10 -40 10
-20 -30 10
-10 -30 10
-20 -40 20
-10 -40 20
-20 -30 20
-10 -30 20
-10 -40 10
0 -40 10
-10 -30 10
0 -30 10
-10 -40 20
0 -40 20
-10 -30 20
0 -30 20
0 -40 10
10 -40 10
0 -30 10
10 -30 10
0 -40 20
10 -40 20
0 -30 20
10 -30 20
10 -40 10
20 -40 10
10 -30 10
20 -30 10
10 -40 20
20 -40 20
10 -30 20
20 -30 20
20 -40 10
30 -40 10
20 -30 10
30 -30 10
20 -40 20
30 -40 20
20 -30 20
30 -30 20
30 -40 10
40 -40 10
30 -30 10
40 -30 10
30 -40 20
40 -40 20
30 -30 20
40 -30 20
40 -40 10
50 -40 10
40 -30 10
50 -30 10
40 -40 20
50 -40 20
40 -30 20
50 -30 20
-50 -30 10
-40 -30 10
-50 -20 10
-40 -20 10
-50 -30 20
-40 -30 20
-50 -20 20
-40 -20 20
-40 -30 10
-30 -30 10
-40 -20 10
-30 -20 10
-40 -30 20
-30 -30 20
-40 -20 20
-30 -20 20
-30 -30 10
-20 -30 10
-30 -20 10
-20 -20 10
-30 -30 20
-20 -30 20
-30 -20 20
-20 -20 20
-20 -30 10
-10 -30 10
-20 -20 10
-10 -20 10
-20 -30 20
-10 -30 20
-20 -20 20
-10 -20 20
-10 -30 10
0 -30 10
-10 -20 10
0 -20 10
-10 -30 20
0 -30 20
-10 -20 20
0 -20 20
0 -30 10
10 -30 10
0 -20 10
10 -20 10
0 -30 20
10 -30 20
0 -20 20
10 -20 20
10 -30 10
20 -30 10
10 -20 10
20 -20 10
10 -30 20
20 -30 20
10 -20 20
20 -20 20
20 -30 10
30 -30 10
20 -20 10
30 -20 10
20 -30 20
30 -30 20
20 -20 20
30 -20 20
30 -30 10
40 -30 10
30 -20 10
40 -20 10
30 -30 20
40 -30 20
30 -20 20
40 -20 20
40 -30 10
50 -30 10
40 -20 10
50 -20 10
40 -30 20
50 -30 20
40 -20 20
50 -20 20
-50 -20 10
-40 -20 10
-50 -10 10
-40 -10 10
-50 -20 20
-40 -20 20
-50 -10 20
-40 -10 20
-40 -20 10
-30 -20 10
-40 -10 10
-30 -10 10
-40 -20 20
-30 -20 20
-40 -10 20
-30 -10 20
-30 -20 10
-20 -20 10
-30 -10 10
-20 -10 10
-30 -20 20
-20 -20 20
-30 -10 20
-20 -10 20
-20 -20 10
-10 -20 10
-20 -10 10
-10 -10 10
-20 -20 20
-10 -20 20
-20 -10 20
-10 -10 20
-10 -20 10
0 -20 10
-10 -10 10
0 -10 10
-10 -20 20
0 -20 20
-10 -10 20
0 -10 20
0 -20 10
10 -20 10
0 -10 10
10 -10 10
0 -20 20
10 -20 20
0 -10 20
10 -10 20
10 -20 10
20 -20 10
10 -10 10
20 -10 10
10 -20 20
20 -20 20
10 -10 20
20 -10 20
20 -20 10
30 -20 10
20 -10 10
30 -10 10
[...]
  <PointData Scalars="scalars">
    <DataArray type="Float32" Name="u" format="ascii">
0.282261 0.302757 0.337206 0.370432 0.278362 0.29797 0.330488 0.361592 0.302757 0.313306 0.370432 0.389955 0.29797 0.308074 0.361592 0.379969 0.313306 0.313316 0.389955 0.389843 0.308074 0.30808 0.379969 0.379874 0.313316 0.30303 0.389843 0.370384 0.30808 0.298207 0.379874 0.361528 0.30303 0.284675 0.370384 0.337765 0.298207 0.280529 0.361528 0.330858 0.284675 0.261702 0.337765 0.300713 0.280529 0.258393 0.330858 0.295679 0.261702 0.237657 0.300713 0.265429 0.258393 0.235132 0.295679 0.261927 0.237657 0.214922 0.265429 0.234752 0.235132 0.21304 0.261927 0.23231 0.214922 0.194577 0.234752 0.208941 0.21304 0.193176 0.23231 0.207212 0.194577 0.176521 0.208941 0.187531 0.193176 0.17548 0.207212 0.186281 0.337206 0.370432 0.411556 0.473082 0.330488 0.361592 0.399142 0.455773 0.370432 0.389955 0.473082 0.513768 0.361592 0.379969 0.455773 0.49204 0.389955 0.389843 0.513768 0.513447 0.379969 0.379874 0.49204 0.491685 0.389843 0.370384 0.513447 0.471851 0.379874 0.361528 0.491685 0.454687 0.370384 0.337765 0.471851 0.409753 0.361528 0.330858 0.454687 0.397407 0.337765 0.300713 0.409753 0.346843 0.330858 0.295679 0.397407 0.339235 0.300713 0.265429 0.346843 0.295087 0.295679 0.261927 0.339235 0.290337 0.265429 0.234752 0.295087 0.254444 0.261927 0.23231 0.290337 0.251367 0.234752 0.208941 0.254444 0.222522 0.23231 0.207212 0.251367 0.220448 0.208941 0.187531 0.222522 0.197144 0.207212 0.186281 0.220448 0.195701 0.411556 0.473082 0.504884 0.644882 0.399142 0.455773 0.483248 0.601206 0.473082 0.513768 0.644882 0.743621 0.455773 0.49204 0.601206 0.691988 0.513768 0.513447 0.743621 0.742365 0.49204 0.491685 0.691988 0.691257 0.513447 0.471851 0.742365 0.643002 0.491685 0.454687 0.691257 0.598991 0.471851 0.409753 0.643002 0.49992 0.454687 0.397407 0.598991 0.478507 0.409753 0.346843 0.49992 0.395021 0.397407 0.339235 0.478507 0.384154 0.346843 0.295087 0.395021 0.323006 0.339235 0.290337 0.384154 0.316918 0.295087 0.254444 0.323006 0.271793 0.290337 0.251367 0.316918 0.268072 0.254444 0.222522 0.271793 0.233866 0.251367 0.220448 0.268072 0.231472 0.222522 0.197144 0.233866 0.204859 0.220448 0.195701 0.231472 0.203254 0.504884 0.644882 0.588153 0.888217 0.483248 0.601206 0.557897 0.787873 0.644882 0.743621 0.888217 1.41849 0.601206 0.691988 0.787873 1.09929 0.743621 0.742365 1.41849 1.42102 0.691988 0.691257 1.09929 1.09926 0.742365 0.643002 1.42102 0.879191 0.691257 0.598991 1.09926 0.784677 0.643002 0.49992 0.879191 0.583615 0.598991 0.478507 0.784677 0.553596 0.49992 0.395021 0.583615 0.433766 0.478507 0.384154 0.553596 0.420169 0.395021 0.323006 0.433766 0.344231 0.384154 0.316918 0.420169 0.336648 0.323006 0.271793 0.344231 0.284073 0.316918 0.268072 0.336648 0.279781 0.271793 0.233866 0.284073 0.241478 0.268072 0.231472 0.279781 0.238868 0.233866 0.204859 0.241478 0.209889 0.231472 0.203254 0.238868 0.208169 0.588153 0.888217 0.614624 1.05037 0.557897 0.787873 0.588061 0.888288 0.344231 0.284073 0.354703 0.28831 0.336648 0.279781 0.344223 0.284066 0.284073 0.241478 0.28831 0.244199 0.279781 0.238868 0.284066 0.241473 0.241478 0.209889 0.244199 0.211632 0.238868 0.208169 0.241473 0.209881 0.614624 1.05037 0.588157 0.888231 0.588061 0.888288 0.557898 0.787885 0.354703 0.28831 0.344232 0.284073 0.344223 0.284066 0.336648 0.279781 0.28831 0.244199 0.284073 0.241479 0.284066 0.241473 0.279781 0.238868 0.244199 0.211632 0.241479 0.209889 0.241473 0.209881 0.238868 0.208169 0.588157 0.888231 0.504888 0.64489 0.557898 0.787885 0.483251 0.601206 0.888231 1.41866 0.64489 0.74362 0.787885 1.0992 0.601206 0.691998 1.41866 1.4212 0.74362 0.742362 1.0992 1.09916 0.691998 0.691269 1.4212 0.879222 0.742362 0.643011 1.09916 0.78468 0.691269 0.598992 0.879222 0.583616 0.643011 0.499923 0.78468 0.553598 0.598992 0.478509 0.583616 0.433767 0.499923 0.395022 0.553598 0.42017 0.478509 0.384155 0.433767 0.344232 0.395022 0.323007 0.42017 0.336648 0.384155 0.316918 0.344232 0.284073 0.323007 0.271793 0.336648 0.279781 0.316918 0.268072 0.284073 0.241479 0.271793 0.233866 0.279781 0.238868 0.268072 0.231472 0.241479 0.209889 0.233866 0.204859 0.238868 0.208169 0.231472 0.203254 0.504888 0.64489 0.411558 0.473084 0.483251 0.601206 0.399143 0.455775 0.64489 0.74362 0.473084 0.513771 0.601206 0.691998 0.455775 0.49204 0.74362 0.742362 0.513771 0.51345 0.691998 0.691269 0.49204 0.491685 0.742362 0.643011 0.51345 0.471852 0.691269 0.598992 0.491685 0.454689 0.643011 0.499923 0.471852 0.409754 0.598992 0.478509 0.454689 0.397407 0.499923 0.395022 0.409754 0.346843 0.478509 0.384155 0.397407 0.339236 0.395022 0.323007 0.346843 0.295087 0.384155 0.316918 0.339236 0.290337 0.323007 0.271793 0.295087 0.254444 0.316918 0.268072 0.290337 0.251367 0.271793 0.233866 0.254444 0.222522 0.268072 0.231472 0.251367 0.220448 0.233866 0.204859 0.222522 0.197144 0.231472 0.203254 0.220448 0.195701 0.411558 0.473084 0.337207 0.370433 0.399143 0.455775 0.330489 0.361593 0.473084 0.513771 0.370433 0.389955 0.455775 0.49204 0.361593 0.37997 0.513771 0.51345 0.389955 0.389844 0.49204 0.491685 0.37997 0.379874 0.51345 0.471852 0.389844 0.370385 0.491685 0.454689 0.379874 0.361529 0.471852 0.409754 0.370385 0.337765 0.454689 0.397407 0.361529 0.330859 0.409754 0.346843 0.337765 0.300713 0.397407 0.339236 0.330859 0.29568 0.346843 0.295087 0.300713 0.265429 0.339236 0.290337 0.29568 0.261927 0.295087 0.254444 0.265429 0.234752 0.290337 0.251367 0.261927 0.23231 0.254444 0.222522 0.234752 0.208941 0.251367 0.220448 0.23231 0.207212 0.222522 0.197144 0.208941 0.187531 0.220448 0.195701 0.207212 0.186281 0.337207 0.370433 0.282262 0.302758 0.330489 0.361593 0.278362 0.297971 0.370433 0.389955 0.302758 0.313307 0.361593 0.37997 0.297971 0.308074 0.389955 0.389844 0.313307 0.313317 0.37997 0.379874 0.308074 0.30808 0.389844 0.370385 0.313317 0.30303 0.379874 0.361529 0.30808 0.298207 0.370385 0.337765 0.30303 0.284676 0.361529 0.330859 0.298207 0.280529 0.337765 0.300713 0.284676 0.261702 0.330859 0.29568 0.280529 0.258394 0.300713 0.265429 0.261702 0.237658 0.29568 0.261927 0.258394 0.235132 0.265429 0.234752 0.237658 0.214922 0.261927 0.23231 0.235132 0.21304 0.234752 0.208941 0.214922 0.194577 0.23231 0.207212 0.21304 0.193176 0.208941 0.187531 0.194577 0.176521 0.207212 0.186281 0.193176 0.17548 0.278362 0.29797 0.330488 0.361592 0.267353 0.284554 0.31205 0.338023 0.29797 0.308074 0.361592 0.379969 0.284554 0.293504 0.338023 0.353268 0.308074 0.30808 0.379969 0.379874 0.293504 0.29351 0.353268 0.353192 0.30808 0.298207 0.379874 0.361528 0.29351 0.284717 0.353192 0.337963 0.298207 0.280529 0.361528 0.330858 0.284717 0.268952 0.337963 0.312121 0.280529 0.258393 0.330858 0.295679 0.268952 0.249084 0.312121 0.28187 0.258393 0.235132 0.295679 0.261927 0.249084 0.227975 0.28187 0.25214 0.235132 0.21304 0.261927 0.23231 0.227975 0.207656 0.25214 0.22539 0.21304 0.193176 0.23231 0.207212 0.207656 0.189136 0.22539 0.202256 0.193176 0.17548 0.207212 0.186281 0.189136 0.172454 0.202256 0.182665 0.330488 0.361592 0.399142 0.455773 0.31205 0.338023 0.367151 0.411147 0.361592 0.379969 0.455773 0.49204 0.338023 0.353268 0.411147 0.438775 0.379969 0.379874 0.49204 0.491685 0.353268 0.353192 0.438775 0.438505 0.379874 0.361528 0.491685 0.454687 0.353192 0.337963 0.438505 0.410297 0.361528 0.330858 0.454687 0.397407 0.337963 0.312121 0.410297 0.365721 0.330858 0.295679 0.397407 0.339235 0.312121 0.28187 0.365721 0.318842 0.295679 0.261927 0.339235 0.290337 0.28187 0.25214 0.318842 0.277254 0.261927 0.23231 0.290337 0.251367 0.25214 0.22539 0.277254 0.242714 0.23231 0.207212 0.251367 0.220448 0.22539 0.202256 0.242714 0.214535 0.207212 0.186281 0.220448 0.195701 0.202256 0.182665 0.214535 0.191543 0.399142 0.455773 0.483248 0.601206 0.367151 0.411147 0.429519 0.505589 0.455773 0.49204 0.601206 0.691988 0.411147 0.438775 0.505589 0.562508 0.49204 0.491685 0.691988 0.691257 0.438775 0.438505 0.562508 0.562033 0.491685 0.454687 0.691257 0.598991 0.438505 0.410297 0.562033 0.504021 0.454687 0.397407 0.598991 0.478507 0.410297 0.365721 0.504021 0.426169 0.397407 0.339235 0.478507 0.384154 0.365721 0.318842 0.426169 0.355721 0.339235 0.290337 0.384154 0.316918 0.318842 0.277254 0.355721 0.300279 0.290337 0.251367 0.316918 0.268072 0.277254 0.242714 0.300279 0.257705 0.251367 0.220448 0.268072 0.231472 0.242714 0.214535 0.257705 0.224685 0.220448 0.195701 0.231472 0.203254 0.214535 0.191543 0.224685 0.198635 0.483248 0.601206 0.557897 0.787873 0.429519 0.505589 0.483173 0.601298 0.601206 0.691988 0.787873 1.09929 0.505589 0.562508 0.601298 0.69222 0.691988 0.691257 1.09929 1.09926 0.562508 0.562033 0.69222 0.691469 0.691257 0.598991 1.09926 0.784677 0.562033 0.504021 0.691469 0.599062 0.598991 0.478507 0.784677 0.553596 0.504021 0.426169 0.599062 0.478506 0.478507 0.384154 0.553596 0.420169 0.426169 0.355721 0.478506 0.384129 0.384154 0.316918 0.420169 0.336648 0.355721 0.300279 0.384129 0.316889 0.316918 0.268072 0.336648 0.279781 0.300279 0.257705 0.316889 0.268049 0.268072 0.231472 0.279781 0.238868 0.257705 0.224685 0.268049 0.231457 0.231472 0.203254 0.238868 0.208169 0.224685 0.198635 0.231457 0.203239 0.557897 0.787873 0.588061 0.888288 0.483173 0.601298 0.504735 0.645062 0.787873 1.09929 0.888288 1.42052 0.601298 0.69222 0.645062 0.743823 1.09929 1.09926 1.42052 1.42281 0.69222 0.691469 0.743823 0.742566 1.09926 0.784677 1.42281 0.879182 0.691469 0.599062 0.742566 0.643159 0.784677 0.553596 0.879182 0.583628 0.599062 0.478506 0.643159 0.499917 0.553596 0.420169 0.583628 0.433758 0.478506 0.384129 0.499917 0.394991 0.420169 0.336648 0.433758 0.344223 0.384129 0.316889 0.394991 0.322969 0.336648 0.279781 0.344223 0.284066 0.316889 0.268049 0.322969 0.271764 0.279781 0.238868 0.284066 0.241473 0.268049 0.231457 0.271764 0.233846 0.238868 0.208169 0.241473 0.209881 0.231457 0.203239 0.233846 0.204837 0.588061 0.888288 0.557898 0.787885 0.504735 0.645062 0.483174 0.601292 0.888288 1.42052 0.787885 1.0992 0.645062 0.743823 0.601292 0.692214 1.42052 1.42281 1.0992 1.09916 0.743823 0.742566 0.692214 0.691464 1.42281 0.879182 1.09916 0.78468 0.742566 0.643159 0.691464 0.599056 0.879182 0.583628 0.78468 0.553598 0.643159 0.499917 0.599056 0.478506 0.583628 0.433758 0.553598 0.42017 0.499917 0.394991 0.478506 0.38413 0.433758 0.344223 0.42017 0.336648 0.394991 0.322969 0.38413 0.316889 0.344223 0.284066 0.336648 0.279781 0.322969 0.271764 0.316889 0.268049 0.284066 0.241473 0.279781 0.238868 0.271764 0.233846 0.268049 0.231457 0.241473 0.209881 0.238868 0.208169 0.233846 0.204837 0.231457 0.203239 0.557898 0.787885 0.483251 0.601206 0.483174 0.601292 0.429519 0.505587 0.787885 1.0992 0.601206 0.691998 0.601292 0.692214 0.505587 0.5625 1.0992 1.09916 0.691998 0.691269 0.692214 0.691464 0.5625 0.562024 1.09916 0.78468 0.691269 0.598992 0.691464 0.599056 0.562024 0.504019 0.78468 0.553598 0.598992 0.478509 0.599056 0.478506 0.504019 0.426169 0.553598 0.42017 0.478509 0.384155 0.478506 0.38413 0.426169 0.355721 0.42017 0.336648 0.384155 0.316918 0.38413 0.316889 0.355721 0.300279 0.336648 0.279781 0.316918 0.268072 0.316889 0.268049 0.300279 0.257705 0.279781 0.238868 0.268072 0.231472 0.268049 0.231457 0.257705 0.224685 0.238868 0.208169 0.231472 0.203254 0.231457 0.203239 0.224685 0.198635 0.483251 0.601206 0.399143 0.455775 0.429519 0.505587 0.367151 0.411146 0.601206 0.691998 0.455775 0.49204 0.505587 0.5625 0.411146 0.438775 0.691998 0.691269 0.49204 0.491685 0.5625 0.562024 0.438775 0.438506 0.691269 0.598992 0.491685 0.454689 0.562024 0.504019 0.438506 0.410297 0.598992 0.478509 0.454689 0.397407 0.504019 0.426169 0.410297 0.365721 0.478509 0.384155 0.397407 0.339236 0.426169 0.355721 0.365721 0.318843 0.384155 0.316918 0.339236 0.290337 0.355721 0.300279 0.318843 0.277254 0.316918 0.268072 0.290337 0.251367 0.300279 0.257705 0.277254 0.242714 0.268072 0.231472 0.251367 0.220448 0.257705 0.224685 0.242714 0.214535 0.231472 0.203254 0.220448 0.195701 0.224685 0.198635 0.214535 0.191543 0.399143 0.455775 0.330489 0.361593 0.367151 0.411146 0.31205 0.338023 0.455775 0.49204 0.361593 0.37997 0.411146 0.438775 0.338023 0.353268 0.49204 0.491685 0.37997 0.379874 0.438775 0.438506 0.353268 0.353192 0.491685 0.454689 0.379874 0.361529 0.438506 0.410297 0.353192 0.337963 0.454689 0.397407 0.361529 0.330859 0.410297 0.365721 0.337963 0.312121 0.397407 0.339236 0.330859 0.29568 0.365721 0.318843 0.312121 0.28187 0.339236 0.290337 0.29568 0.261927 0.318843 0.277254 0.28187 0.25214 0.290337 0.251367 0.261927 0.23231 0.277254 0.242714 0.25214 0.22539 0.251367 0.220448 0.23231 0.207212 0.242714 0.214535 0.22539 0.202256 0.220448 0.195701 0.207212 0.186281 0.214535 0.191543 0.202256 0.182665 0.330489 0.361593 0.278362 0.297971 0.31205 0.338023 0.267353 0.284554 0.361593 0.37997 0.297971 0.308074 0.338023 0.353268 0.284554 0.293504 0.37997 0.379874 0.308074 0.30808 0.353268 0.353192 0.293504 0.29351 0.379874 0.361529 0.30808 0.298207 0.353192 0.337963 0.29351 0.284717 0.361529 0.330859 0.298207 0.280529 0.337963 0.312121 0.284717 0.268952 0.330859 0.29568 0.280529 0.258394 0.312121 0.28187 0.268952 0.249084 0.29568 0.261927 0.258394 0.235132 0.28187 0.25214 0.249084 0.227975 0.261927 0.23231 0.235132 0.21304 0.25214 0.22539 0.227975 0.207656 0.23231 0.207212 0.21304 0.193176 0.22539 0.202256 0.207656 0.189136 0.207212 0.186281 0.193176 0.17548 0.202256 0.182665 0.189136 0.172454 0.267353 0.284554 0.31205 0.338023 0.251067 0.265122 0.286418 0.306327 0.284554 0.293504 0.338023 0.353268 0.265122 0.272492 0.306327 0.317838 0.293504 0.29351 0.353268 0.353192 0.272492 0.272504 0.317838 0.317799 0.29351 0.284717 0.353192 0.337963 0.272504 0.265244 0.317799 0.306312 0.284717 0.268952 0.337963 0.312121 0.265244 0.252133 0.306312 0.286401 0.268952 0.249084 0.312121 0.28187 0.252133 0.235393 0.286401 0.262383 0.249084 0.227975 0.28187 0.25214 0.235393 0.217281 0.262383 0.237886 0.227975 0.207656 0.25214 0.22539 0.217281 0.19947 0.237886 0.215042 0.207656 0.189136 0.22539 0.202256 0.19947 0.182896 0.215042 0.194689 0.189136 0.172454 0.202256 0.182665 0.182896 0.167713 0.194689 0.177048 0.31205 0.338023 0.367151 0.411147 0.286418 0.306327 0.326469 0.356673 0.338023 0.353268 0.411147 0.438775 0.306327 0.317838 0.356673 0.375031 0.353268 0.353192 0.438775 0.438505 0.317838 0.317799 0.375031 0.374875 0.353192 0.337963 0.438505 0.410297 0.317799 0.306312 0.374875 0.356199 0.337963 0.312121 0.410297 0.365721 0.306312 0.286401 0.356199 0.325677 0.312121 0.28187 0.365721 0.318842 0.286401 0.262383 0.325677 0.291335 0.28187 0.25214 0.318842 0.277254 0.262383 0.237886 0.291335 0.258671 0.25214 0.22539 0.277254 0.242714 0.237886 0.215042 0.258671 0.229975 0.22539 0.202256 0.242714 0.214535 0.215042 0.194689 0.229975 0.205597 0.202256 0.182665 0.214535 0.191543 0.194689 0.177048 0.205597 0.185122 0.367151 0.411147 0.429519 0.505589 0.326469 0.356673 0.367178 0.411208 0.411147 0.438775 0.505589 0.562508 0.356673 0.375031 0.411208 0.438848 0.438775 0.438505 0.562508 0.562033 0.375031 0.374875 0.438848 0.438552 0.438505 0.410297 0.562033 0.504021 0.374875 0.356199 0.438552 0.4103 0.410297 0.365721 0.504021 0.426169 0.356199 0.325677 0.4103 0.36568 0.365721 0.318842 0.426169 0.355721 0.325677 0.291335 0.36568 0.318777 0.318842 0.277254 0.355721 0.300279 0.291335 0.258671 0.318777 0.27719 0.277254 0.242714 0.300279 0.257705 0.258671 0.229975 0.27719 0.242673 0.242714 0.214535 0.257705 0.224685 0.229975 0.205597 0.242673 0.214519 0.214535 0.191543 0.224685 0.198635 0.205597 0.185122 0.214519 0.191536 0.429519 0.505589 0.483173 0.601298 0.367178 0.411208 0.399165 0.455907 0.505589 0.562508 0.601298 0.69222 0.411208 0.438848 0.455907 0.4922 0.562508 0.562033 0.69222 0.691469 0.438848 0.438552 0.4922 0.491807 0.562033 0.504021 0.691469 0.599062 0.438552 0.4103 0.491807 0.454739 0.504021 0.426169 0.599062 0.478506 0.4103 0.36568 0.454739 0.397372 0.426169 0.355721 0.478506 0.384129 0.36568 0.318777 0.397372 0.339149 0.355721 0.300279 0.384129 0.316889 0.318777 0.27719 0.339149 0.290246 0.300279 0.257705 0.316889 0.268049 0.27719 0.242673 0.290246 0.251305 0.257705 0.224685 0.268049 0.231457 0.242673 0.214519 0.251305 0.22042 0.224685 0.198635 0.231457 0.203239 0.214519 0.191536 0.22042 0.195682 0.483173 0.601298 0.504735 0.645062 0.399165 0.455907 0.411569 0.473239 0.601298 0.69222 0.645062 0.743823 0.455907 0.4922 0.473239 0.513981 0.69222 0.691469 0.743823 0.742566 0.4922 0.491807 0.513981 0.513616 0.691469 0.599062 0.742566 0.643159 0.491807 0.454739 0.513616 0.471922 0.599062 0.478506 0.643159 0.499917 0.454739 0.397372 0.471922 0.409729 0.478506 0.384129 0.499917 0.394991 0.397372 0.339149 0.409729 0.346754 0.384129 0.316889 0.394991 0.322969 0.339149 0.290246 0.346754 0.294989 0.316889 0.268049 0.322969 0.271764 0.290246 0.251305 0.294989 0.254376 0.268049 0.231457 0.271764 0.233846 0.251305 0.22042 0.254376 0.222489 0.231457 0.203239 0.233846 0.204837 0.22042 0.195682 0.222489 0.197119 0.504735 0.645062 0.483174 0.601292 0.411569 0.473239 0.399164 0.455906 0.645062 0.743823 0.601292 0.692214 0.473239 0.513981 0.455906 0.492198 0.743823 0.742566 0.692214 0.691464 0.513981 0.513616 0.492198 0.491805 0.742566 0.643159 0.691464 0.599056 0.513616 0.471922 0.491805 0.454738 0.643159 0.499917 0.599056 0.478506 0.471922 0.409729 0.454738 0.397372 0.499917 0.394991 0.478506 0.38413 0.409729 0.346754 0.397372 0.339149 0.394991 0.322969 0.38413 0.316889 0.346754 0.294989 0.339149 0.290246 0.322969 0.271764 0.316889 0.268049 0.294989 0.254376 0.290246 0.251305 0.271764 0.233846 0.268049 0.231457 0.254376 0.222489 0.251305 0.22042 0.233846 0.204837 0.231457 0.203239 0.222489 0.197119 0.22042 0.195682 0.483174 0.601292 0.429519 0.505587 0.399164 0.455906 0.367177 0.411207 0.601292 0.692214 0.505587 0.5625 0.455906 0.492198 0.411207 0.438846 0.692214 0.691464 0.5625 0.562024 0.492198 0.491805 0.438846 0.43855 0.691464 0.599056 0.562024 0.504019 0.491805 0.454738 0.43855 0.410298 0.599056 0.478506 0.504019 0.426169 0.454738 0.397372 0.410298 0.365679 0.478506 0.38413 0.426169 0.355721 0.397372 0.339149 0.365679 0.318777 0.38413 0.316889 0.355721 0.300279 0.339149 0.290246 0.318777 0.27719 0.316889 0.268049 0.300279 0.257705 0.290246 0.251305 0.27719 0.242673 0.268049 0.231457 0.257705 0.224685 0.251305 0.22042 0.242673 0.214519 0.231457 0.203239 0.224685 0.198635 0.22042 0.195682 0.214519 0.191536 0.429519 0.505587 0.367151 0.411146 0.367177 0.411207 0.326468 0.356672 0.505587 0.5625 0.411146 0.438775 0.411207 0.438846 0.356672 0.375029 0.5625 0.562024 0.438775 0.438506 0.438846 0.43855 0.375029 0.374873 0.562024 0.504019 0.438506 0.410297 0.43855 0.410298 0.374873 0.356198 0.504019 0.426169 0.410297 0.365721 0.410298 0.365679 0.356198 0.325677 0.426169 0.355721 0.365721 0.318843 0.365679 0.318777 0.325677 0.291334 0.355721 0.300279 0.318843 0.277254 0.318777 0.27719 0.291334 0.258671 0.300279 0.257705 0.277254 0.242714 0.27719 0.242673 0.258671 0.229975 0.257705 0.224685 0.242714 0.214535 0.242673 0.214519 0.229975 0.205597 0.224685 0.198635 0.214535 0.191543 0.214519 0.191536 0.205597 0.185122 0.367151 0.411146 0.31205 0.338023 0.326468 0.356672 0.286418 0.306326 0.411146 0.438775 0.338023 0.353268 0.356672 0.375029 0.306326 0.317837 0.438775 0.438506 0.353268 0.353192 0.375029 0.374873 0.317837 0.317799 0.438506 0.410297 0.353192 0.337963 0.374873 0.356198 0.317799 0.306312 0.410297 0.365721 0.337963 0.312121 0.356198 0.325677 0.306312 0.286401 0.365721 0.318843 0.312121 0.28187 0.325677 0.291334 0.286401 0.262383 0.318843 0.277254 0.28187 0.25214 0.291334 0.258671 0.262383 0.237886 0.277254 0.242714 0.25214 0.22539 0.258671 0.229975 0.237886 0.215042 0.242714 0.214535 0.22539 0.202256 0.229975 0.205597 0.215042 0.194689 0.214535 0.191543 0.202256 0.182665 0.205597 0.185122 0.194689 0.177048 0.31205 0.338023 0.267353 0.284554 0.286418 0.306326 0.251067 0.265121 0.338023 0.353268 0.284554 0.293504 0.306326 0.317837 0.265121 0.272491 0.353268 0.353192 0.293504 0.29351 0.3178