<?xml version="1.0" ?> 
<!-- 
# vtk DataFile Version 3.0
#This file was generated by the deal.II library on 16:48:14 at 2019/11/27
-->
<VTKFile type="UnstructuredGrid" version="0.1" byte_order="LittleEndian">
<UnstructuredGrid>
<Piece NumberOfPoints="23288" NumberOfCells="2911" >
  <Points>
    <DataArray type="Float32" NumberOfComponents="3" format="ascii">
-50 -50 0
-40 -50 0
-50 -40 0
-40 -40 0
-50 -50 10
-40 -50 10
-50 -40 10
-40 -40 10
-40 -50 0
-30 -50 0
-40 -40 0
-30 -40 0
-40 -50 10
-30 -50 10
-40 -40 10
-30 -40 10
-30 -50 0
-20 -50 0
-30 -40 0
-20 -40 0
-30 -50 10
-20 -50 10
-30 -40 10
-20 -40 10
-20 -50 0
-10 -50 0
-20 -40 0
-10 -40 0
-20 -50 10
-10 -50 10
-20 -40 10
-10 -40 10
-10 -50 0
0 -50 0
-10 -40 0
0 -40 0
-10 -50 10
0 -50 10
-10 -40 10
0 -40 10
0 -50 0
10 -50 0
0 -40 0
10 -40 0
0 -50 10
10 -50 10
0 -40 10
10 -40 10
10 -50 0
20 -50 0
10 -40 0
20 -40 0
10 -50 10
20 -50 10
10 -40 10
20 -40 10
20 -50 0
30 -50 0
20 -40 0
30 -40 0
20 -50 10
30 -50 10
20 -40 10
30 -40 10
30 -50 0
40 -50 0
30 -40 0
40 -40 0
30 -50 10
40 -50 10
30 -40 10
40 -40 10
40 -50 0
50 -50 0
40 -40 0
50 -40 0
40 -50 10
50 -50 10
40 -40 10
50 -40 10
-50 -40 0
-40 -40 0
-50 -30 0
-40 -30 0
-50 -40 10
-40 -40 10
-50 -30 10
-40 -30 10
-40 -40 0
-30 -40 0
-40 -30 0
-30 -30 0
-40 -40 10
-30 -40 10
-40 -30 10
-30 -30 10
-30 -40 0
-20 -40 0
-30 -30 0
-20 -30 0
-30 -40 10
-20 -40 10
-30 -30 10
-20 -30 10
-20 -40 0
-10 -40 0
-20 -30 0
-10 -30 0
-20 -40 10
-10 -40 10
-20 -30 10
-10 -30 10
20 -40 0
30 -40 0
20 -30 0
30 -30 0
20 -40 10
30 -40 10
20 -30 10
30 -30 10
-50 -30 0
-40 -30 0
-50 -20 0
-40 -20 0
-50 -30 10
-40 -30 10
-50 -20 10
-40 -20 10
-40 -30 0
-30 -30 0
-40 -20 0
-30 -20 0
-40 -30 10
-30 -30 10
-40 -20 10
-30 -20 10
-30 -30 0
-20 -30 0
-30 -20 0
-20 -20 0
-30 -30 10
-20 -30 10
-30 -20 10
-20 -20 10
20 -30 0
30 -30 0
20 -20 0
30 -20 0
20 -30 10
30 -30 10
20 -20 10
30 -20 10
-50 -20 0
-40 -20 0
-50 -10 0
-40 -10 0
-50 -20 10
-40 -20 10
-50 -10 10
-40 -10 10
-40 -20 0
-30 -20 0
-40 -10 0
-30 -10 0
-40 -20 10
-30 -20 10
-40 -10 10
-30 -10 10
-30 -20 0
-20 -20 0
-30 -10 0
-20 -10 0
-30 -20 10
-20 -20 10
-30 -10 10
-20 -10 10
-20 -20 0
-10 -20 0
-20 -10 0
-10 -10 0
-20 -20 10
-10 -20 10
-20 -10 10
-10 -10 10
-50 -10 0
-40 -10 0
-50 0 0
-40 0 0
-50 -10 10
-40 -10 10
-50 0 10
-40 0 10
-40 -10 0
-30 -10 0
-40 0 0
-30 0 0
-40 -10 10
-30 -10 10
-40 0 10
-30 0 10
-30 -10 0
-20 -10 0
-30 0 0
-20 0 0
-30 -10 10
-20 -10 10
-30 0 10
-20 0 10
-50 0 0
-40 0 0
-50 10 0
-40 10 0
-50 0 10
-40 0 10
-50 10 10
-40 10 10
-40 0 0
-30 0 0
-40 10 0
-30 10 0
-40 0 10
-30 0 10
-40 10 10
-30 10 10
-30 0 0
-20 0 0
-30 10 0
-20 10 0
-30 0 10
-20 0 10
-30 10 10
-20 10 10
-50 10 0
-40 10 0
-50 20 0
-40 20 0
-50 10 10
-40 10 10
-50 20 10
-40 20 10
-40 10 0
-30 10 0
-40 20 0
-30 20 0
-40 10 10
-30 10 10
-40 20 10
-30 20 10
-30 10 0
-20 10 0
-30 20 0
-20 20 0
-30 10 10
-20 10 10
-30 20 10
-20 20 10
-20 10 0
-10 10 0
-20 20 0
-10 20 0
-20 10 10
-10 10 10
-20 20 10
-10 20 10
-50 20 0
-40 20 0
-50 30 0
-40 30 0
-50 20 10
-40 20 10
-50 30 10
-40 30 10
-40 20 0
-30 20 0
-40 30 0
-30 30 0
-40 20 10
-30 20 10
-40 30 10
-30 30 10
-30 20 0
-20 20 0
-30 30 0
-20 30 0
-30 20 10
-20 20 10
-30 30 10
-20 30 10
20 20 0
30 20 0
20 30 0
30 30 0
20 20 10
30 20 10
20 30 10
30 30 10
-50 30 0
-40 30 0
-50 40 0
-40 40 0
-50 30 10
-40 30 10
-50 40 10
-40 40 10
-40 30 0
-30 30 0
-40 40 0
-30 40 0
-40 30 10
-30 30 10
-40 40 10
-30 40 10
-30 30 0
-20 30 0
-30 40 0
-20 40 0
-30 30 10
-20 30 10
-30 40 10
-20 40 10
-20 30 0
-10 30 0
-20 40 0
-10 40 0
-20 30 10
-10 30 10
-20 40 10
-10 40 10
20 30 0
30 30 0
20 40 0
30 40 0
20 30 10
30 30 10
20 40 10
30 40 10
-50 40 0
-40 40 0
-50 50 0
-40 50 0
-50 40 10
-40 40 10
-50 50 10
-40 50 10
-40 40 0
-30 40 0
-40 50 0
-30 50 0
-40 40 10
-30 40 10
-40 50 10
-30 50 10
-30 40 0
-20 40 0
-30 50 0
-20 50 0
-30 40 10
-20 40 10
-30 50 10
-20 50 10
-20 40 0
-10 40 0
-20 50 0
-10 50 0
-20 40 10
-10 40 10
-20 50 10
-10 50 10
-10 40 0
0 40 0
-10 50 0
0 50 0
-10 40 10
0 40 10
-10 50 10
0 50 10
0 40 0
10 40 0
0 50 0
10 50 0
0 40 10
10 40 10
0 50 10
10 50 10
10 40 0
20 40 0
10 50 0
20 50 0
10 40 10
20 40 10
10 50 10
20 50 10
20 40 0
30 40 0
20 50 0
30 50 0
20 40 10
30 40 10
20 50 10
30 50 10
30 40 0
40 40 0
30 50 0
40 50 0
30 40 10
40 40 10
30 50 10
40 50 10
40 40 0
50 40 0
40 50 0
50 50 0
40 40 10
50 40 10
40 50 10
50 50 10
-50 -50 10
-40 -50 10
-50 -40 10
-40 -40 10
-50 -50 20
-40 -50 20
-50 -40 20
-40 -40 20
-40 -50 10
-30 -50 10
-40 -40 10
-30 -40 10
-40 -50 20
-30 -50 20
-40 -40 20
-30 -40 20
-30 -50 10
-20 -50 10
-30 -40 10
-20 -40 10
-30 -50 20
-20 -50 20
-30 -40 20
-20 -40 20
-20 -50 10
-10 -50 10
-20 -40 10
-10 -40 10
-20 -50 20
-10 -50 20
-20 -40 20
-10 -40 20
-10 -50 10
0 -50 10
-10 -40 10
0 -40 10
-10 -50 20
0 -50 20
-10 -40 20
0 -40 20
0 -50 10
10 -50 10
0 -40 10
10 -40 10
0 -50 20
10 -50 20
0 -40 20
10 -40 20
10 -50 10
20 -50 10
10 -40 10
20 -40 10
10 -50 20
20 -50 20
10 -40 20
20 -40 20
20 -50 10
30 -50 10
20 -40 10
30 -40 10
20 -50 20
30 -50 20
20 -40 20
30 -40 20
30 -50 10
40 -50 10
30 -40 10
40 -40 10
30 -50 20
40 -50 20
30 -40 20
40 -40 20
-50 -40 10
-40 -40 10
-50 -30 10
-40 -30 10
-50 -40 20
-40 -40 20
-50 -30 20
-40 -30 20
-40 -40 10
-30 -40 10
-40 -30 10
-30 -30 10
-40 -40 20
-30 -40 20
-40 -30 20
-30 -30 20
-30 -40 10
-20 -40 10
-30 -30 10
-20 -30 10
-30 -40 20
-20 -40 20
-30 -30 20
-20 -30 20
-20 -40 10
-10 -40 10
-20 -30 10
-10 -30 10
-20 -40 20
-10 -40 20
-20 -30 20
-10 -30 20
-10 -40 10
0 -40 10
-10 -30 10
0 -30 10
-10 -40 20
0 -40 20
-10 -30 20
0 -30 20
20 -40 10
30 -40 10
20 -30 10
30 -30 10
20 -40 20
30 -40 20
20 -30 20
30 -30 20
-50 -30 10
-40 -30 10
-50 -20 10
-40 -20 10
-50 -30 20
-40 -30 20
-50 -20 20
-40 -20 20
-40 -30 10
-30 -30 10
-40 -20 10
-30 -20 10
-40 -30 20
-30 -30 20
-40 -20 20
-30 -20 20
-30 -30 10
-20 -30 10
-30 -20 10
-20 -20 10
-30 -30 20
-20 -30 20
-30 -20 20
-20 -20 20
20 -30 10
30 -30 10
20 -20 10
30 -20 10
20 -30 20
30 -30 20
20 -20 20
30 -20 20
-50 -20 10
-40 -20 10
-50 -10 10
-40 -10 10
-50 -20 20
-40 -20 20
-50 -10 20
-40 -10 20
-40 -20 10
-30 -20 10
-40 -10 10
-30 -10 10
-40 -20 20
-30 -20 20
-40 -10 20
-30 -10 20
-30 -20 10
-20 -20 10
-30 -10 10
-20 -10 10
-30 -20 20
-20 -20 20
-30 -10 20
-20 -10 20
-50 -10 10
-40 -10 10
-50 0 10
-40 0 10
-50 -10 20
-40 -10 20
-50 0 20
-40 0 20
-40 -10 10
-30 -10 10
-40 0 10
-30 0 10
-40 -10 20
-30 -10 20
-40 0 20
-30 0 20
-30 -10 10
-20 -10 10
-30 0 10
-20 0 10
-30 -10 20
-20 -10 20
-30 0 20
-20 0 20
-20 -10 10
-10 -10 10
-20 0 10
-10 0 10
-20 -10 20
-10 -10 20
-20 0 20
-10 0 20
-50 0 10
-40 0 10
-50 10 10
-40 10 10
-50 0 20
-40 0 20
-50 10 20
-40 10 20
-40 0 10
-30 0 10
-40 10 10
-30 10 10
-40 0 20
-30 0 20
-40 10 20
-30 10 20
-30 0 10
-20 0 10
-30 10 10
-20 10 10
-30 0 20
-20 0 20
-30 10 20
-20 10 20
-20 0 10
-10 0 10
-20 10 10
-10 10 10
-20 0 20
-10 0 20
-20 10 20
-10 10 20
-50 10 10
-40 10 10
-50 20 10
-40 20 10
-50 10 20
-40 10 20
-50 20 20
-40 20 20
-40 10 10
-30 10 10
-40 20 10
-30 20 10
-40 10 20
-30 10 20
-40 20 20
-30 20 20
-30 10 10
-20 10 10
-30 20 10
-20 20 10
-30 10 20
-20 10 20
-30 20 20
-20 20 20
-50 20 10
-40 20 10
-50 30 10
-40 30 10
-50 20 20
-40 20 20
-50 30 20
-40 30 20
-40 20 10
-30 20 10
-40 30 10
-30 30 10
-40 20 20
-30 20 20
-40 30 20
-30 30 20
-30 20 10
-20 20 10
-30 30 10
-20 30 10
-30 20 20
-20 20 20
-30 30 20
-20 30 20
20 20 10
30 20 10
20 30 10
30 30 10
20 20 20
30 20 20
20 30 20
30 30 20
-50 30 10
-40 30 10
-50 40 10
-40 40 10
-50 30 20
-40 30 20
-50 40 20
-40 40 20
-40 30 10
-30 30 10
-40 40 10
-30 40 10
-40 30 20
-30 30 20
-40 40 20
-30 40 20
-30 30 10
-20 30 10
-30 40 10
-20 40 10
-30 30 20
-20 30 20
-30 40 20
-20 40 20
-20 30 10
-10 30 10
-20 40 10
-10 40 10
-20 30 20
-10 30 20
-20 40 20
-10 40 20
-10 30 10
0 30 10
-10 40 10
0 40 10
-10 30 20
0 30 20
-10 40 20
0 40 20
20 30 10
30 30 10
20 40 10
30 40 10
20 30 20
30 30 20
20 40 20
30 40 20
-50 40 10
-40 40 10
-50 50 10
-40 50 10
-50 40 20
-40 40 20
-50 50 20
-40 50 20
-40 40 10
-30 40 10
-40 50 10
-30 50 10
-40 40 20
-30 40 20
-40 50 20
-30 50 20
-30 40 10
-20 40 10
-30 50 10
-20 50 10
-30 40 20
-20 40 20
-30 50 20
-20 50 20
-20 40 10
-10 40 10
-20 50 10
-10 50 10
-20 40 20
-10 40 20
-20 50 20
-10 50 20
-10 40 10
0 40 10
-10 50 10
0 50 10
-10 40 20
0 40 20
-10 50 20
0 50 20
10 40 10
20 40 10
10 50 10
20 50 10
10 40 20
20 40 20
10 50 20
20 50 20
20 40 10
30 40 10
20 50 10
30 50 10
20 40 20
30 40 20
20 50 20
30 50 20
30 40 10
40 40 10
30 50 10
40 50 10
30 40 20
40 40 20
30 50 20
40 50 20
-50 -50 20
-40 -50 20
-50 -40 20
-40 -40 20
-50 -50 30
-40 -50 30
-50 -40 30
-40 -40 30
-40 -50 20
-30 -50 20
-40 -40 20
-30 -40 20
-40 -50 30
-30 -50 30
-40 -40 30
-30 -40 30
-30 -50 20
-20 -50 20
-30 -40 20
-20 -40 20
-30 -50 30
-20 -50 30
-30 -40 30
-20 -40 30
-20 -50 20
-10 -50 20
-20 -40 20
-10 -40 20
-20 -50 30
-10 -50 30
-20 -40 30
-10 -40 30
-10 -50 20
0 -50 20
-10 -40 20
0 -40 20
-10 -50 30
0 -50 30
-10 -40 30
0 -40 30
0 -50 20
10 -50 20
0 -40 20
10 -40 20
0 -50 30
10 -50 30
0 -40 30
10 -40 30
20 -50 20
30 -50 20
20 -40 20
30 -40 20
20 -50 30
30 -50 30
20 -40 30
30 -40 30
40 -50 20
50 -50 20
40 -40 20
50 -40 20
40 -50 30
50 -50 30
40 -40 30
50 -40 30
-50 -40 20
-40 -40 20
-50 -30 20
-40 -30 20
-50 -40 30
-40 -40 30
-50 -30 30
-40 -30 30
-40 -40 20
-30 -40 20
-40 -30 20
-30 -30 20
-40 -40 30
-30 -40 30
-40 -30 30
-30 -30 30
-30 -40 20
-20 -40 20
-30 -30 20
-20 -30 20
-30 -40 30
-20 -40 30
-30 -30 30
-20 -30 30
-20 -40 20
-10 -40 20
-20 -30 20
-10 -30 20
-20 -40 30
-10 -40 30
-20 -30 30
-10 -30 30
-10 -40 20
0 -40 20
-10 -30 20
0 -30 20
-10 -40 30
0 -40 30
-10 -30 30
0 -30 30
0 -40 20
10 -40 20
0 -30 20
10 -30 20
0 -40 30
10 -40 30
0 -30 30
10 -30 30
20 -40 20
30 -40 20
20 -30 20
30 -30 20
20 -40 30
30 -40 30
20 -30 30
30 -30 30
40 -40 20
50 -40 20
40 -30 20
50 -30 20
40 -40 30
50 -40 30
40 -30 30
50 -30 30
-50 -30 20
-40 -30 20
-50 -20 20
-40 -20 20
-50 -30 30
-40 -30 30
-50 -20 30
-40 -20 30
-40 -30 20
-30 -30 20
-40 -20 20
-30 -20 20
-40 -30 30
-30 -30 30
-40 -20 30
-30 -20 30
-30 -30 20
-20 -30 20
[...]
  <PointData Scalars="scalars">
    <DataArray type="Float32" Name="u" format="ascii">
0.176241 0.194247 0.187267 0.208618 0.175195 0.192839 0.186008 0.206883 0.194247 0.214484 0.208618 0.234329 0.192839 0.212594 0.206883 0.231867 0.214484 0.237081 0.234329 0.264806 0.212594 0.234544 0.231867 0.261267 0.237081 0.26119 0.264806 0.299892 0.234544 0.257786 0.261267 0.294766 0.26119 0.283992 0.299892 0.338256 0.257786 0.279823 0.294766 0.330213 0.283992 0.304596 0.338256 0.374133 0.279823 0.299253 0.330213 0.364861 0.304596 0.315911 0.374133 0.393452 0.299253 0.309907 0.364861 0.382314 0.315911 0.31582 0.393452 0.393336 0.309907 0.30971 0.382314 0.382563 0.31582 0.303992 0.393336 0.374366 0.30971 0.296391 0.382563 0.363434 0.303992 0.282443 0.374366 0.33932 0.296391 0.278327 0.363434 0.330479 0.187267 0.208618 0.196968 0.222304 0.186008 0.206883 0.19551 0.220196 0.208618 0.234329 0.222304 0.254074 0.206883 0.231867 0.220196 0.250997 0.234329 0.264806 0.254074 0.294725 0.231867 0.261267 0.250997 0.28985 0.264806 0.299892 0.294725 0.345965 0.261267 0.294766 0.28985 0.337762 0.393452 0.393336 0.511722 0.51182 0.382314 0.382563 0.489875 0.489896 0.196968 0.222304 0.204854 0.233859 0.19551 0.220196 0.203204 0.231439 0.222304 0.254074 0.233859 0.271848 0.220196 0.250997 0.231439 0.267822 0.254074 0.294725 0.271848 0.322222 0.250997 0.28985 0.267822 0.316615 0.511722 0.51182 0.775444 0.775648 0.489875 0.489896 0.699498 0.699696 0.204854 0.233859 0.210179 0.241836 0.203204 0.231439 0.208348 0.239022 0.233859 0.271848 0.241836 0.284538 0.231439 0.267822 0.239022 0.280643 0.271848 0.322222 0.284538 0.344549 0.267822 0.316615 0.280643 0.337245 0.322222 0.39659 0.344549 0.437744 0.316615 0.383587 0.337245 0.422285 0.210179 0.241836 0.211885 0.245751 0.208348 0.239022 0.210173 0.241896 0.241836 0.284538 0.245751 0.289167 0.239022 0.280643 0.241896 0.284361 0.284538 0.344549 0.289167 0.357343 0.280643 0.337245 0.284361 0.344574 0.211885 0.245751 0.210181 0.241839 0.210173 0.241896 0.20835 0.239025 0.245751 0.289167 0.241839 0.28454 0.241896 0.284361 0.239025 0.280646 0.289167 0.357343 0.28454 0.344553 0.284361 0.344574 0.280646 0.337248 0.210181 0.241839 0.204858 0.233864 0.20835 0.239025 0.203208 0.231444 0.241839 0.28454 0.233864 0.271854 0.239025 0.280646 0.231444 0.267827 0.28454 0.344553 0.271854 0.322228 0.280646 0.337248 0.267827 0.31662 0.344553 0.437767 0.322228 0.39659 0.337248 0.422293 0.31662 0.383586 0.204858 0.233864 0.196974 0.222311 0.203208 0.231444 0.195516 0.220203 0.233864 0.271854 0.222311 0.254083 0.231444 0.267827 0.220203 0.251006 0.271854 0.322228 0.254083 0.294735 0.267827 0.31662 0.251006 0.289862 0.775458 0.775645 0.511718 0.511822 0.6995 0.699691 0.489789 0.489896 0.196974 0.222311 0.187274 0.208626 0.195516 0.220203 0.186015 0.206891 0.222311 0.254083 0.208626 0.234341 0.220203 0.251006 0.206891 0.231879 0.254083 0.294735 0.234341 0.264828 0.251006 0.289862 0.231879 0.261283 0.294735 0.345968 0.264828 0.29991 0.289862 0.337759 0.261283 0.294822 0.511718 0.511822 0.393323 0.393345 0.489789 0.489896 0.382563 0.382589 0.187274 0.208626 0.176248 0.194256 0.186015 0.206891 0.175202 0.192848 0.208626 0.234341 0.194256 0.214497 0.206891 0.231879 0.192848 0.212606 0.234341 0.264828 0.214497 0.237099 0.231879 0.261283 0.212606 0.234569 0.264828 0.29991 0.237099 0.26126 0.261283 0.294822 0.234569 0.257802 0.29991 0.338334 0.26126 0.283981 0.294822 0.330095 0.257802 0.280299 0.338334 0.374628 0.283981 0.304253 0.330095 0.36353 0.280299 0.296448 0.374628 0.393323 0.304253 0.315867 0.36353 0.382563 0.296448 0.309735 0.393323 0.393345 0.315867 0.315829 0.382563 0.382589 0.309735 0.309716 0.393345 0.374375 0.315829 0.304002 0.382589 0.363441 0.309716 0.296402 0.374375 0.339325 0.304002 0.28245 0.363441 0.330485 0.296402 0.278334 0.175195 0.192839 0.186008 0.206883 0.17216 0.188788 0.182375 0.20191 0.192839 0.212594 0.206883 0.231867 0.188788 0.207201 0.20191 0.224913 0.212594 0.234544 0.231867 0.261267 0.207201 0.22737 0.224913 0.251452 0.234544 0.257786 0.261267 0.294766 0.22737 0.248356 0.251452 0.280906 0.257786 0.279823 0.294766 0.330213 0.248356 0.268183 0.280906 0.31106 0.279823 0.299253 0.330213 0.364861 0.268183 0.283702 0.31106 0.337463 0.299253 0.309907 0.364861 0.382314 0.283702 0.292429 0.337463 0.352834 0.309907 0.30971 0.382314 0.382563 0.292429 0.292382 0.352834 0.352859 0.30971 0.296391 0.382563 0.363434 0.292382 0.284049 0.352859 0.337394 0.186008 0.206883 0.19551 0.220196 0.182375 0.20191 0.191308 0.214235 0.206883 0.231867 0.220196 0.250997 0.20191 0.224913 0.214235 0.242301 0.231867 0.261267 0.250997 0.28985 0.224913 0.251452 0.242301 0.276439 0.261267 0.294766 0.28985 0.337762 0.251452 0.280906 0.276439 0.317374 0.294766 0.330213 0.337762 0.394643 0.280906 0.31106 0.317374 0.363603 0.382314 0.382563 0.489875 0.489896 0.352834 0.352859 0.434913 0.43499 0.19551 0.220196 0.203204 0.231439 0.191308 0.214235 0.198507 0.224503 0.220196 0.250997 0.231439 0.267822 0.214235 0.242301 0.224503 0.257292 0.250997 0.28985 0.267822 0.316615 0.242301 0.276439 0.257292 0.299963 0.489875 0.489896 0.699498 0.699696 0.434913 0.43499 0.555531 0.555717 0.203204 0.231439 0.208348 0.239022 0.198507 0.224503 0.203204 0.231489 0.231439 0.267822 0.239022 0.280643 0.224503 0.257292 0.231489 0.267747 0.267822 0.316615 0.280643 0.337245 0.257292 0.299963 0.267747 0.316521 0.208348 0.239022 0.210173 0.241896 0.203204 0.231489 0.204877 0.233837 0.239022 0.280643 0.241896 0.284361 0.231489 0.267747 0.233837 0.272688 0.280643 0.337245 0.284361 0.344574 0.267747 0.316521 0.272688 0.323259 0.337245 0.422285 0.344574 0.437781 0.316521 0.383629 0.323259 0.396498 0.210173 0.241896 0.20835 0.239025 0.204877 0.233837 0.203206 0.231492 0.241896 0.284361 0.239025 0.280646 0.233837 0.272688 0.231492 0.267749 0.284361 0.344574 0.280646 0.337248 0.272688 0.323259 0.267749 0.316523 0.344574 0.437781 0.337248 0.422293 0.323259 0.396498 0.316523 0.383627 0.20835 0.239025 0.203208 0.231444 0.203206 0.231492 0.198511 0.224508 0.239025 0.280646 0.231444 0.267827 0.231492 0.267749 0.224508 0.257297 0.280646 0.337248 0.267827 0.31662 0.267749 0.316523 0.257297 0.299968 0.203208 0.231444 0.195516 0.220203 0.198511 0.224508 0.191313 0.214241 0.231444 0.267827 0.220203 0.251006 0.224508 0.257297 0.214241 0.242309 0.267827 0.31662 0.251006 0.289862 0.257297 0.299968 0.242309 0.276451 0.6995 0.699691 0.489789 0.489896 0.555521 0.555691 0.434894 0.434995 0.195516 0.220203 0.186015 0.206891 0.191313 0.214241 0.182382 0.201918 0.220203 0.251006 0.206891 0.231879 0.214241 0.242309 0.201918 0.224924 0.251006 0.289862 0.231879 0.261283 0.242309 0.276451 0.224924 0.251469 0.289862 0.337759 0.261283 0.294822 0.276451 0.317379 0.251469 0.280952 0.337759 0.394648 0.294822 0.330095 0.317379 0.363631 0.280952 0.311029 0.489789 0.489896 0.382563 0.382589 0.434894 0.434995 0.352858 0.352874 0.186015 0.206891 0.175202 0.192848 0.182382 0.201918 0.172167 0.188796 0.206891 0.231879 0.192848 0.212606 0.201918 0.224924 0.188796 0.207213 0.231879 0.261283 0.212606 0.234569 0.224924 0.251469 0.207213 0.227391 0.261283 0.294822 0.234569 0.257802 0.251469 0.280952 0.227391 0.248388 0.294822 0.330095 0.257802 0.280299 0.280952 0.311029 0.248388 0.268544 0.36353 0.382563 0.296448 0.309735 0.33734 0.352858 0.284191 0.292401 0.382563 0.382589 0.309735 0.309716 0.352858 0.352874 0.292401 0.292395 0.382589 0.363441 0.309716 0.296402 0.352874 0.337403 0.292395 0.284056 0.17216 0.188788 0.182375 0.20191 0.167416 0.18255 0.176748 0.194335 0.188788 0.207201 0.20191 0.224913 0.18255 0.199027 0.194335 0.214572 0.207201 0.22737 0.224913 0.251452 0.199027 0.216705 0.214572 0.237231 0.22737 0.248356 0.251452 0.280906 0.216705 0.234689 0.237231 0.261511 0.248356 0.268183 0.280906 0.31106 0.234689 0.251357 0.261511 0.285403 0.268183 0.283702 0.31106 0.337463 0.251357 0.26476 0.285403 0.305209 0.292429 0.292382 0.352834 0.352859 0.272073 0.272087 0.316891 0.316909 0.284049 0.267599 0.337394 0.310977 0.264668 0.250335 0.305229 0.285418 0.182375 0.20191 0.191308 0.214235 0.176748 0.194335 0.18485 0.205269 0.20191 0.224913 0.214235 0.242301 0.194335 0.214572 0.205269 0.229505 0.224913 0.251452 0.242301 0.276439 0.214572 0.237231 0.229505 0.257931 0.251452 0.280906 0.276439 0.317374 0.237231 0.261511 0.257931 0.290155 0.280906 0.31106 0.317374 0.363603 0.261511 0.285403 0.290155 0.323948 0.31106 0.337463 0.363603 0.407387 0.285403 0.305209 0.323948 0.354533 0.352834 0.352859 0.434913 0.43499 0.316891 0.316909 0.373361 0.373397 0.337394 0.310977 0.407726 0.364618 0.305229 0.285418 0.35471 0.324722 0.191308 0.214235 0.198507 0.224503 0.18485 0.205269 0.191323 0.214237 0.214235 0.242301 0.224503 0.257292 0.205269 0.229505 0.214237 0.24228 0.242301 0.276439 0.257292 0.299963 0.229505 0.257931 0.24228 0.2764 0.276439 0.317374 0.299963 0.353185 0.257931 0.290155 0.2764 0.317324 0.317374 0.363603 0.353185 0.421536 0.290155 0.323948 0.317324 0.363584 0.434913 0.43499 0.555531 0.555717 0.373361 0.373397 0.4349 0.434865 0.198507 0.224503 0.203204 0.231489 0.191323 0.214237 0.195531 0.22022 0.224503 0.257292 0.231489 0.267747 0.214237 0.24228 0.22022 0.250925 0.257292 0.299963 0.267747 0.316521 0.24228 0.2764 0.250925 0.289756 0.555531 0.555717 0.699623 0.699812 0.4349 0.434865 0.489802 0.489997 0.203204 0.231489 0.204877 0.233837 0.195531 0.22022 0.196983 0.222359 0.231489 0.267747 0.233837 0.272688 0.22022 0.250925 0.222359 0.254031 0.267747 0.316521 0.272688 0.323259 0.250925 0.289756 0.254031 0.294649 0.699623 0.699812 0.775684 0.775908 0.489802 0.489997 0.511764 0.511876 0.204877 0.233837 0.203206 0.231492 0.196983 0.222359 0.195532 0.220222 0.233837 0.272688 0.231492 0.267749 0.222359 0.254031 0.220222 0.250928 0.272688 0.323259 0.267749 0.316523 0.254031 0.294649 0.250928 0.289758 0.775684 0.775908 0.699607 0.699808 0.511764 0.511876 0.489786 0.489921 0.203206 0.231492 0.198511 0.224508 0.195532 0.220222 0.191326 0.214241 0.231492 0.267749 0.224508 0.257297 0.220222 0.250928 0.214241 0.242285 0.267749 0.316523 0.257297 0.299968 0.250928 0.289758 0.242285 0.276405 0.699607 0.699808 0.555521 0.555691 0.489786 0.489921 0.434886 0.435005 0.198511 0.224508 0.191313 0.214241 0.191326 0.214241 0.184855 0.205275 0.224508 0.257297 0.214241 0.242309 0.214241 0.242285 0.205275 0.229513 0.257297 0.299968 0.242309 0.276451 0.242285 0.276405 0.229513 0.257941 0.299968 0.353189 0.276451 0.317379 0.276405 0.317329 0.257941 0.290168 0.353189 0.421529 0.317379 0.363631 0.317329 0.363588 0.290168 0.323952 0.555521 0.555691 0.434894 0.434995 0.434886 0.435005 0.373346 0.37341 0.191313 0.214241 0.182382 0.201918 0.184855 0.205275 0.176754 0.194342 0.214241 0.242309 0.201918 0.224924 0.205275 0.229513 0.194342 0.214582 0.242309 0.276451 0.224924 0.251469 0.229513 0.257941 0.214582 0.237246 0.276451 0.317379 0.251469 0.280952 0.257941 0.290168 0.237246 0.261534 0.317379 0.363631 0.280952 0.311029 0.290168 0.323952 0.261534 0.285449 0.363631 0.40739 0.311029 0.33734 0.323952 0.354531 0.285449 0.305257 0.434894 0.434995 0.352858 0.352874 0.373346 0.37341 0.3169 0.31691 0.407728 0.364624 0.337403 0.310983 0.354746 0.324712 0.305227 0.285424 0.182382 0.201918 0.172167 0.188796 0.176754 0.194342 0.167422 0.182557 0.201918 0.224924 0.188796 0.207213 0.194342 0.214582 0.182557 0.199037 0.224924 0.251469 0.207213 0.227391 0.214582 0.237246 0.199037 0.21672 0.251469 0.280952 0.227391 0.248388 0.237246 0.261534 0.21672 0.234728 0.280952 0.311029 0.248388 0.268544 0.261534 0.285449 0.234728 0.251388 0.311029 0.33734 0.268544 0.284191 0.285449 0.305257 0.251388 0.264772 0.352858 0.352874 0.292401 0.292395 0.3169 0.31691 0.272113 0.272094 0.337403 0.310983 0.284056 0.267605 0.305227 0.285424 0.264675 0.250339 0.167416 0.18255 0.176748 0.194335 0.161357 0.174737 0.169644 0.184993 0.18255 0.199027 0.194335 0.214572 0.174737 0.189009 0.184993 0.202173 0.199027 0.216705 0.214572 0.237231 0.189009 0.203944 0.202173 0.220773 0.216705 0.234689 0.237231 0.261511 0.203944 0.218737 0.220773 0.239929 0.234689 0.251357 0.261511 0.285403 0.218737 0.232128 0.239929 0.257964 0.251357 0.26476 0.285403 0.305209 0.232128 0.242439 0.257964 0.272471 0.26476 0.272073 0.305209 0.316891 0.242439 0.248127 0.272471 0.280651 0.272073 0.272087 0.316891 0.316909 0.248127 0.248102 0.280651 0.280632 0.272087 0.264668 0.316909 0.305229 0.248102 0.24232 0.280632 0.27239 0.264668 0.250335 0.305229 0.285418 0.24232 0.231414 0.27239 0.257876 0.176748 0.194335 0.18485 0.205269 0.169644 0.184993 0.176783 0.194363 0.194335 0.214572 0.205269 0.229505 0.184993 0.202173 0.194363 0.214535 0.214572 0.237231 0.229505 0.257931 0.202173 0.220773 0.214535 0.237165 0.237231 0.261511 0.257931 0.290155 0.220773 0.239929 0.237165 0.261433 0.261511 0.285403 0.290155 0.323948 0.239929 0.257964 0.261433 0.285343 0.285403 0.305209 0.323948 0.354533 0.257964 0.272471 0.285343 0.305154 0.305209 0.316891 0.354533 0.373361 0.272471 0.280651 0.305154 0.316725 0.316891 0.316909 0.373361 0.373397 0.280651 0.280632 0.316725 0.316895 0.316909 0.305229 0.373397 0.35471 0.280632 0.27239 0.316895 0.305324 0.305229 0.285418 0.35471 0.324722 0.27239 0.257876 0.305324 0.285438 0.18485 0.205269 0.191323 0.214237 0.176783 0.194363 0.182427 0.201949 0.205269 0.229505 0.214237 0.24228 0.194363 0.214535 0.201949 0.224859 0.229505 0.257931 0.24228 0.2764 0.214535 0.237165 0.224859 0.251351 0.257931 0.290155 0.2764 0.317324 0.237165 0.261433 0.251351 0.280805 0.290155 0.323948 0.317324 0.363584 0.261433 0.285343 0.280805 0.310872 0.323948 0.354533 0.363584 0.40735 0.285343 0.305154 0.310872 0.337192 0.373361 0.373397 0.4349 0.434865 0.316725 0.316895 0.3526 0.353817 0.35471 0.324722 0.407713 0.364629 0.305324 0.285438 0.337502 0.31093 0.191323 0.214237 0.195531 0.22022 0.182427 0.201949 0.186069 0.206928 0.214237 0.24228 0.22022 0.250925 0.201949 0.224859 0.206928 0.231809 0.24228 0.2764 0.250925 0.289756 0.224859 0.251351 0.231809 0.261151 0.2764 0.317324 0.289756 0.337712 0.251351 0.280805 0.261151 0.29467 0.317324 0.363584 0.337712 0.394598 0.280805 0.310872 0.29467 0.329947 0.4349 0.434865 0.489802 0.489997 0.3526 0.353817 0.382621 0.382468 0.195531 0.22022 0.196983 0.222359 0.186069 0.206928 0.187333 0.208665 0.22022 0.250925 0.222359 0.254031 0.206928 0.231809 0.208665 0.234267 0.250925 0.289756 0.254031 0.294649 0.231809 0.261151 0.234267 0.264689 0.289756 0.337712 0.294649 0.345956 0.261151 0.29467 0.264689 0.299763 0.489802 0.489997 0.511764 0.511876 0.382621 0.382468 0.393321 0.393416 0.196983 0.222359 0.195532 0.220222 0.187333 0.208665 0.18607 0.206929 0.222359 0.254031 0.220222 0.250928 0.208665 0.234267 0.206929 0.231811 0.254031 0.294649 0.250928 0.289758 0.234267 0.264689 0.231811 0.261153 0.294649 0.345956 0.289758 0.337714 0.264689 0.299763 0.261153 0.294672 0.511764 0.511876 0.489786 0.489921 0.393321 0.393416 0.382628 0.382684 0.195532 0.220222 0.191326 0.214241 0.18607 0.206929 0.18243 0.201953 0.220222 0.250928 0.214241 0.242285 0.206929 0.231811 0.201953 0.224863 0.250928 0.289758 0.242285 0.276405 0.231811 0.261153 0.224863 0.251355 0.289758 0.337714 0.276405 0.317329 0.261153 0.294672 0.251355 0.280811 0.337714 0.394597 0.317329 0.363588 0.294672 0.32995 0.280811 0.310876 0.489786 0.489921 0.434886 0.435005 0.382628 0.382684 0.352566 0.352615 0.191326 0.214241 0.184855 0.205275 0.18243 0.201953 0.176787 0.194368 0.214241 0.242285 0.205275 0.229513 0.201953 0.224863 0.194368 0.214542 0.242285 0.276405 0.229513 0.257941 0.224863 0.251355 0.214542 0.237173 0.276405 0.317329 0.257941 0.290168 0.251355 0.280811 0.237173 0.261443 0.317329 0.363588 0.290168 0.323952 0.280811 0.310876 0.261443 0.285356 0.363588 0.407346 0.323952 0.354531 0.310876 0.337207 0.285356 0.305166 0.434886 0.435005 0.373346 0.37341 0.352566 0.352615 0.316759 0.316783 0.40772 0.364616 0.354746 0.324712 0.337436 0.310946 0.305257 0.285457 0.184855 0.205275 0.176754 0.194342 0.176787 0.194368 0.16965 0.184999 0.205275 0.229513 0.194342 0.214582 0.194368 0.214542 0.184999 0.202181 0.229513 0.257941 0.214582 0.237246 0.214542 0.237173 0.202181 0.220784 0.257941 0.290168 0.237246 0.261534 0.237173 0.261443 0.220784 0.239945 0.290168 0.323952 0.261534 0.285449 0.261443 0.285356 0.239945 0.25798 0.323952 0.354531 0.285449 0.305257 0.285356 0.305166 0.25798 0.272487 0.354531 0.373346 0.305257 0.3169 0.305166 0.316759 0.272487 0.280658 0.373346 0.37341 0.3169 0.31691 0.316759 0.316783 0.280658 0.280645 0.37341 0.354746 0.31691 0.305227 0.316783 0.305257 0.280645 0.2724 0.354746 0.324712 0.305227 0.285424 0.305257 0.285457 0.2724 0.257878 0.176754 0.194342 0.167422 0.182557 0.16965 0.184999 0.161362 0.174744 0.194342 0.214582 0.182557 0.199037 0.184999 0.202181 0.174744 0.189017 0.214582 0.237246 0.199037 0.21672 0.202181 0.220784 0.189017 0.203956 0.237246 0.261534 0.21672 0.234728 0.220784 0.239945 0.203956 0.218752 0.261534 0.285449 0.234728 0.251388 0.239945 0.25798 0.218752 0.232148 0.285449 0.305257 0.251388 0.264772 0.25798 0.272487 0.232148 0.242458 0.305257 0.3169 0.264772 0.272113 0.272487 0.280658 0.242458 0.248137 0.3169 0.31691 0.272113 0.272094 0.280658 0.280645 0.248137 0.248109 0.31691 0.305227 0.272094 0.264675 0.280645 0.2724 0.248109 0.242324 0.305227 0.285424 0.264675 0.250339 0.2724 0.257878 0.242324 0.23142 0.161357 0.174737 0.169644 0.184993 0.154416 0.165987 0.161617 0.174709 0.174737 0.189009 0.184993 0.202173 0.165987 0.178057 0.174709 0.18894 0.189009 0.203944 0.202173 0.220773 0.178057 0.190362 0.18894 0.203833 0.203944 0.218737 0.220773 0.239929 0.190362 0.202219 0.203833 0.218597 0.218737 0.232128 0.239929 0.257964 0.202219 0.212656 0.218597 0.231972 0.232128 0.242439 0.257964 0.272471 0.212656 0.220539 0.231972 0.242311 0.242439 0.248127 0.272471 0.280651 0.220539 0.224791 0.242311 0.247995 0.248127 0.248102 0.280651 0.280632 0.224791 0.224751 0.247995 0.247974 0.248102 0.24232 0.280632 0.27239 0.224751 0.220399 0.247974 0.242193 0.24232 0.231414 0.27239 0.257876 0.220399 0.212101 0.242193 0.231792 0.169644 0.184993 0.176783 0.194363 0.161617 0.174709 0.167765 0.182547 0.184993 0.202173 0.194363 0.214535 0.174709 0.18894 0.182547 0.198923 0.202173 0.220773 0.214535 0.237165 0.18894 0.203833 0.198923 0.216523 0.220773 0.239929 0.237165 0.261433 0.203833 0.218597 0.216523 0.234466 0.239929 0.257964 0.261433 0.285343 0.218597 0.231972 0.234466 0.251161 0.257964 0.272471 0.285343 0.305154 0.231972 0.242311 0.251161 0.264463 0.272471 0.280651 0.305154 0.316725 0.242311 0.247995 0.264463 0.271978 0.280651 0.280632 0.316725 0.316895 0.247995 0.247974 0.271978 0.271905 0.280632 0.27239 0.316895 0.305324 0.247974 0.242193 0.271905 0.264352 0.27239 0.257876 0.305324 0.285438 0.242193 0.231792 0.264352 0.251034 0.176783 0.194363 0.182427 0.201949 0.167765 0.182547 0.17258 0.188801 0.194363 0.214535 0.201949 0.224859 0.182547 0.198923 0.188801 0.207087 0.214535 0.237165 0.224859 0.251351 0.198923 0.216523 0.207087 0.227156 0.237165 0.261433 0.251351 0.280805 0.216523 0.234466 0.227156 0.248107 0.261433 0.285343 0.280805 0.310872 0.234466 0.251161 0.248107 0.268152 0.285343 0.305154 0.310872 0.337192 0.251161 0.264463 0.268152 0.284317 0.316725 0.316895 0.3526 0.353817 0.271978 0.271905 0.293229 0.29442 0.316895 0.305324 0.353817 0.337502 0.271905 0.264352 0.29442 0.284161 0.305324 0.285438 0.337502 0.31093 0.264352 0.251034 0.284161 0.26838 0.182427 0.201949 0.186069 0.206928 0.17258 0.188801 0.175661 0.192864 0.201949 0.224859 0.206928 0.231809 0.188801 0.207087 0.192864 0.212478 0.224859 0.251351 0.231809 0.261151 0.207087 0.227156 0.212478 0.234322 0.251351 0.280805 0.261151 0.29467 0.227156 0.248107 0.234322 0.257497 0.280805 0.310872 0.29467 0.329947 0.248107 0.268152 0.257497 0.280065 0.337192 0.3526 0.363366 0.382621 0.284317 0.293229 0.29719 0.309624 0.3526 0.353817 0.382621 0.382468 0.293229 0.29442 0.309624 0.309703 0.353817 0.337502 0.382468 0.363487 0.29442 0.284161 0.309703 0.297226 0.186069 0.206928 0.187333 0.208665 0.175661 0.192864 0.176723 0.194276 0.206928 0.231809 0.208665 0.234267 0.192864 0