<?xml version="1.0" ?> 
<!-- 
# vtk DataFile Version 3.0
#This file was generated by the deal.II library on 16:46:54 at 2019/11/27
-->
<VTKFile type="UnstructuredGrid" version="0.1" byte_order="LittleEndian">
<UnstructuredGrid>
<Piece NumberOfPoints="16736" NumberOfCells="2092" >
  <Points>
    <DataArray type="Float32" NumberOfComponents="3" format="ascii">
-50 -50 0
-40 -50 0
-50 -40 0
-40 -40 0
-50 -50 10
-40 -50 10
-50 -40 10
-40 -40 10
-40 -50 0
-30 -50 0
-40 -40 0
-30 -40 0
-40 -50 10
-30 -50 10
-40 -40 10
-30 -40 10
-30 -50 0
-20 -50 0
-30 -40 0
-20 -40 0
-30 -50 10
-20 -50 10
-30 -40 10
-20 -40 10
-20 -50 0
-10 -50 0
-20 -40 0
-10 -40 0
-20 -50 10
-10 -50 10
-20 -40 10
-10 -40 10
-10 -50 0
0 -50 0
-10 -40 0
0 -40 0
-10 -50 10
0 -50 10
-10 -40 10
0 -40 10
0 -50 0
10 -50 0
0 -40 0
10 -40 0
0 -50 10
10 -50 10
0 -40 10
10 -40 10
10 -50 0
20 -50 0
10 -40 0
20 -40 0
10 -50 10
20 -50 10
10 -40 10
20 -40 10
20 -50 0
30 -50 0
20 -40 0
30 -40 0
20 -50 10
30 -50 10
20 -40 10
30 -40 10
30 -50 0
40 -50 0
30 -40 0
40 -40 0
30 -50 10
40 -50 10
30 -40 10
40 -40 10
40 -50 0
50 -50 0
40 -40 0
50 -40 0
40 -50 10
50 -50 10
40 -40 10
50 -40 10
-50 -40 0
-40 -40 0
-50 -30 0
-40 -30 0
-50 -40 10
-40 -40 10
-50 -30 10
-40 -30 10
-40 -40 0
-30 -40 0
-40 -30 0
-30 -30 0
-40 -40 10
-30 -40 10
-40 -30 10
-30 -30 10
-30 -40 0
-20 -40 0
-30 -30 0
-20 -30 0
-30 -40 10
-20 -40 10
-30 -30 10
-20 -30 10
-20 -40 0
-10 -40 0
-20 -30 0
-10 -30 0
-20 -40 10
-10 -40 10
-20 -30 10
-10 -30 10
-10 -40 0
0 -40 0
-10 -30 0
0 -30 0
-10 -40 10
0 -40 10
-10 -30 10
0 -30 10
0 -40 0
10 -40 0
0 -30 0
10 -30 0
0 -40 10
10 -40 10
0 -30 10
10 -30 10
10 -40 0
20 -40 0
10 -30 0
20 -30 0
10 -40 10
20 -40 10
10 -30 10
20 -30 10
20 -40 0
30 -40 0
20 -30 0
30 -30 0
20 -40 10
30 -40 10
20 -30 10
30 -30 10
30 -40 0
40 -40 0
30 -30 0
40 -30 0
30 -40 10
40 -40 10
30 -30 10
40 -30 10
40 -40 0
50 -40 0
40 -30 0
50 -30 0
40 -40 10
50 -40 10
40 -30 10
50 -30 10
-50 -30 0
-40 -30 0
-50 -20 0
-40 -20 0
-50 -30 10
-40 -30 10
-50 -20 10
-40 -20 10
-40 -30 0
-30 -30 0
-40 -20 0
-30 -20 0
-40 -30 10
-30 -30 10
-40 -20 10
-30 -20 10
-10 -30 0
0 -30 0
-10 -20 0
0 -20 0
-10 -30 10
0 -30 10
-10 -20 10
0 -20 10
0 -30 0
10 -30 0
0 -20 0
10 -20 0
0 -30 10
10 -30 10
0 -20 10
10 -20 10
10 -30 0
20 -30 0
10 -20 0
20 -20 0
10 -30 10
20 -30 10
10 -20 10
20 -20 10
20 -30 0
30 -30 0
20 -20 0
30 -20 0
20 -30 10
30 -30 10
20 -20 10
30 -20 10
30 -30 0
40 -30 0
30 -20 0
40 -20 0
30 -30 10
40 -30 10
30 -20 10
40 -20 10
40 -30 0
50 -30 0
40 -20 0
50 -20 0
40 -30 10
50 -30 10
40 -20 10
50 -20 10
-20 -20 0
-10 -20 0
-20 -10 0
-10 -10 0
-20 -20 10
-10 -20 10
-20 -10 10
-10 -10 10
-10 -20 0
0 -20 0
-10 -10 0
0 -10 0
-10 -20 10
0 -20 10
-10 -10 10
0 -10 10
0 -20 0
10 -20 0
0 -10 0
10 -10 0
0 -20 10
10 -20 10
0 -10 10
10 -10 10
10 -20 0
20 -20 0
10 -10 0
20 -10 0
10 -20 10
20 -20 10
10 -10 10
20 -10 10
20 -20 0
30 -20 0
20 -10 0
30 -10 0
20 -20 10
30 -20 10
20 -10 10
30 -10 10
30 -20 0
40 -20 0
30 -10 0
40 -10 0
30 -20 10
40 -20 10
30 -10 10
40 -10 10
40 -20 0
50 -20 0
40 -10 0
50 -10 0
40 -20 10
50 -20 10
40 -10 10
50 -10 10
10 -10 0
20 -10 0
10 0 0
20 0 0
10 -10 10
20 -10 10
10 0 10
20 0 10
20 -10 0
30 -10 0
20 0 0
30 0 0
20 -10 10
30 -10 10
20 0 10
30 0 10
30 -10 0
40 -10 0
30 0 0
40 0 0
30 -10 10
40 -10 10
30 0 10
40 0 10
40 -10 0
50 -10 0
40 0 0
50 0 0
40 -10 10
50 -10 10
40 0 10
50 0 10
10 0 0
20 0 0
10 10 0
20 10 0
10 0 10
20 0 10
10 10 10
20 10 10
20 0 0
30 0 0
20 10 0
30 10 0
20 0 10
30 0 10
20 10 10
30 10 10
30 0 0
40 0 0
30 10 0
40 10 0
30 0 10
40 0 10
30 10 10
40 10 10
40 0 0
50 0 0
40 10 0
50 10 0
40 0 10
50 0 10
40 10 10
50 10 10
-10 10 0
0 10 0
-10 20 0
0 20 0
-10 10 10
0 10 10
-10 20 10
0 20 10
0 10 0
10 10 0
0 20 0
10 20 0
0 10 10
10 10 10
0 20 10
10 20 10
10 10 0
20 10 0
10 20 0
20 20 0
10 10 10
20 10 10
10 20 10
20 20 10
20 10 0
30 10 0
20 20 0
30 20 0
20 10 10
30 10 10
20 20 10
30 20 10
30 10 0
40 10 0
30 20 0
40 20 0
30 10 10
40 10 10
30 20 10
40 20 10
40 10 0
50 10 0
40 20 0
50 20 0
40 10 10
50 10 10
40 20 10
50 20 10
-50 20 0
-40 20 0
-50 30 0
-40 30 0
-50 20 10
-40 20 10
-50 30 10
-40 30 10
-40 20 0
-30 20 0
-40 30 0
-30 30 0
-40 20 10
-30 20 10
-40 30 10
-30 30 10
-10 20 0
0 20 0
-10 30 0
0 30 0
-10 20 10
0 20 10
-10 30 10
0 30 10
0 20 0
10 20 0
0 30 0
10 30 0
0 20 10
10 20 10
0 30 10
10 30 10
10 20 0
20 20 0
10 30 0
20 30 0
10 20 10
20 20 10
10 30 10
20 30 10
20 20 0
30 20 0
20 30 0
30 30 0
20 20 10
30 20 10
20 30 10
30 30 10
30 20 0
40 20 0
30 30 0
40 30 0
30 20 10
40 20 10
30 30 10
40 30 10
40 20 0
50 20 0
40 30 0
50 30 0
40 20 10
50 20 10
40 30 10
50 30 10
-50 30 0
-40 30 0
-50 40 0
-40 40 0
-50 30 10
-40 30 10
-50 40 10
-40 40 10
-40 30 0
-30 30 0
-40 40 0
-30 40 0
-40 30 10
-30 30 10
-40 40 10
-30 40 10
-30 30 0
-20 30 0
-30 40 0
-20 40 0
-30 30 10
-20 30 10
-30 40 10
-20 40 10
-20 30 0
-10 30 0
-20 40 0
-10 40 0
-20 30 10
-10 30 10
-20 40 10
-10 40 10
-10 30 0
0 30 0
-10 40 0
0 40 0
-10 30 10
0 30 10
-10 40 10
0 40 10
0 30 0
10 30 0
0 40 0
10 40 0
0 30 10
10 30 10
0 40 10
10 40 10
10 30 0
20 30 0
10 40 0
20 40 0
10 30 10
20 30 10
10 40 10
20 40 10
20 30 0
30 30 0
20 40 0
30 40 0
20 30 10
30 30 10
20 40 10
30 40 10
30 30 0
40 30 0
30 40 0
40 40 0
30 30 10
40 30 10
30 40 10
40 40 10
40 30 0
50 30 0
40 40 0
50 40 0
40 30 10
50 30 10
40 40 10
50 40 10
-50 40 0
-40 40 0
-50 50 0
-40 50 0
-50 40 10
-40 40 10
-50 50 10
-40 50 10
-40 40 0
-30 40 0
-40 50 0
-30 50 0
-40 40 10
-30 40 10
-40 50 10
-30 50 10
-30 40 0
-20 40 0
-30 50 0
-20 50 0
-30 40 10
-20 40 10
-30 50 10
-20 50 10
-20 40 0
-10 40 0
-20 50 0
-10 50 0
-20 40 10
-10 40 10
-20 50 10
-10 50 10
-10 40 0
0 40 0
-10 50 0
0 50 0
-10 40 10
0 40 10
-10 50 10
0 50 10
0 40 0
10 40 0
0 50 0
10 50 0
0 40 10
10 40 10
0 50 10
10 50 10
10 40 0
20 40 0
10 50 0
20 50 0
10 40 10
20 40 10
10 50 10
20 50 10
20 40 0
30 40 0
20 50 0
30 50 0
20 40 10
30 40 10
20 50 10
30 50 10
30 40 0
40 40 0
30 50 0
40 50 0
30 40 10
40 40 10
30 50 10
40 50 10
40 40 0
50 40 0
40 50 0
50 50 0
40 40 10
50 40 10
40 50 10
50 50 10
-50 -50 10
-40 -50 10
-50 -40 10
-40 -40 10
-50 -50 20
-40 -50 20
-50 -40 20
-40 -40 20
-40 -50 10
-30 -50 10
-40 -40 10
-30 -40 10
-40 -50 20
-30 -50 20
-40 -40 20
-30 -40 20
-30 -50 10
-20 -50 10
-30 -40 10
-20 -40 10
-30 -50 20
-20 -50 20
-30 -40 20
-20 -40 20
-20 -50 10
-10 -50 10
-20 -40 10
-10 -40 10
-20 -50 20
-10 -50 20
-20 -40 20
-10 -40 20
-10 -50 10
0 -50 10
-10 -40 10
0 -40 10
-10 -50 20
0 -50 20
-10 -40 20
0 -40 20
0 -50 10
10 -50 10
0 -40 10
10 -40 10
0 -50 20
10 -50 20
0 -40 20
10 -40 20
10 -50 10
20 -50 10
10 -40 10
20 -40 10
10 -50 20
20 -50 20
10 -40 20
20 -40 20
20 -50 10
30 -50 10
20 -40 10
30 -40 10
20 -50 20
30 -50 20
20 -40 20
30 -40 20
30 -50 10
40 -50 10
30 -40 10
40 -40 10
30 -50 20
40 -50 20
30 -40 20
40 -40 20
40 -50 10
50 -50 10
40 -40 10
50 -40 10
40 -50 20
50 -50 20
40 -40 20
50 -40 20
-50 -40 10
-40 -40 10
-50 -30 10
-40 -30 10
-50 -40 20
-40 -40 20
-50 -30 20
-40 -30 20
-40 -40 10
-30 -40 10
-40 -30 10
-30 -30 10
-40 -40 20
-30 -40 20
-40 -30 20
-30 -30 20
-30 -40 10
-20 -40 10
-30 -30 10
-20 -30 10
-30 -40 20
-20 -40 20
-30 -30 20
-20 -30 20
-20 -40 10
-10 -40 10
-20 -30 10
-10 -30 10
-20 -40 20
-10 -40 20
-20 -30 20
-10 -30 20
-10 -40 10
0 -40 10
-10 -30 10
0 -30 10
-10 -40 20
0 -40 20
-10 -30 20
0 -30 20
0 -40 10
10 -40 10
0 -30 10
10 -30 10
0 -40 20
10 -40 20
0 -30 20
10 -30 20
10 -40 10
20 -40 10
10 -30 10
20 -30 10
10 -40 20
20 -40 20
10 -30 20
20 -30 20
20 -40 10
30 -40 10
20 -30 10
30 -30 10
20 -40 20
30 -40 20
20 -30 20
30 -30 20
30 -40 10
40 -40 10
30 -30 10
40 -30 10
30 -40 20
40 -40 20
30 -30 20
40 -30 20
40 -40 10
50 -40 10
40 -30 10
50 -30 10
40 -40 20
50 -40 20
40 -30 20
50 -30 20
-10 -30 10
0 -30 10
-10 -20 10
0 -20 10
-10 -30 20
0 -30 20
-10 -20 20
0 -20 20
0 -30 10
10 -30 10
0 -20 10
10 -20 10
0 -30 20
10 -30 20
0 -20 20
10 -20 20
10 -30 10
20 -30 10
10 -20 10
20 -20 10
10 -30 20
20 -30 20
10 -20 20
20 -20 20
20 -30 10
30 -30 10
20 -20 10
30 -20 10
20 -30 20
30 -30 20
20 -20 20
30 -20 20
30 -30 10
40 -30 10
30 -20 10
40 -20 10
30 -30 20
40 -30 20
30 -20 20
40 -20 20
40 -30 10
50 -30 10
40 -20 10
50 -20 10
40 -30 20
50 -30 20
40 -20 20
50 -20 20
-10 -20 10
0 -20 10
-10 -10 10
0 -10 10
-10 -20 20
0 -20 20
-10 -10 20
0 -10 20
0 -20 10
10 -20 10
0 -10 10
10 -10 10
0 -20 20
10 -20 20
0 -10 20
10 -10 20
10 -20 10
20 -20 10
10 -10 10
20 -10 10
10 -20 20
20 -20 20
10 -10 20
20 -10 20
20 -20 10
30 -20 10
20 -10 10
30 -10 10
20 -20 20
30 -20 20
20 -10 20
30 -10 20
30 -20 10
40 -20 10
30 -10 10
40 -10 10
30 -20 20
40 -20 20
30 -10 20
40 -10 20
40 -20 10
50 -20 10
40 -10 10
50 -10 10
40 -20 20
50 -20 20
40 -10 20
50 -10 20
-10 -10 10
0 -10 10
-10 0 10
0 0 10
-10 -10 20
0 -10 20
-10 0 20
0 0 20
0 -10 10
10 -10 10
0 0 10
10 0 10
0 -10 20
10 -10 20
0 0 20
10 0 20
10 -10 10
20 -10 10
10 0 10
20 0 10
10 -10 20
20 -10 20
10 0 20
20 0 20
20 -10 10
30 -10 10
20 0 10
30 0 10
20 -10 20
30 -10 20
20 0 20
30 0 20
30 -10 10
40 -10 10
30 0 10
40 0 10
30 -10 20
40 -10 20
30 0 20
40 0 20
40 -10 10
50 -10 10
40 0 10
50 0 10
40 -10 20
50 -10 20
40 0 20
50 0 20
-10 0 10
0 0 10
-10 10 10
0 10 10
-10 0 20
0 0 20
-10 10 20
0 10 20
0 0 10
10 0 10
0 10 10
10 10 10
0 0 20
10 0 20
0 10 20
10 10 20
10 0 10
20 0 10
10 10 10
20 10 10
10 0 20
20 0 20
10 10 20
20 10 20
20 0 10
30 0 10
20 10 10
30 10 10
20 0 20
30 0 20
20 10 20
30 10 20
30 0 10
40 0 10
30 10 10
40 10 10
30 0 20
40 0 20
30 10 20
40 10 20
40 0 10
50 0 10
40 10 10
50 10 10
40 0 20
50 0 20
40 10 20
50 10 20
-10 10 10
0 10 10
-10 20 10
0 20 10
-10 10 20
0 10 20
-10 20 20
0 20 20
0 10 10
10 10 10
0 20 10
10 20 10
0 10 20
10 10 20
0 20 20
10 20 20
10 10 10
20 10 10
10 20 10
20 20 10
10 10 20
20 10 20
10 20 20
20 20 20
20 10 10
30 10 10
20 20 10
30 20 10
20 10 20
30 10 20
20 20 20
30 20 20
30 10 10
40 10 10
30 20 10
40 20 10
30 10 20
40 10 20
30 20 20
40 20 20
40 10 10
50 10 10
40 20 10
50 20 10
40 10 20
50 10 20
40 20 20
50 20 20
-10 20 10
0 20 10
-10 30 10
0 30 10
-10 20 20
0 20 20
-10 30 20
0 30 20
0 20 10
10 20 10
0 30 10
10 30 10
0 20 20
10 20 20
0 30 20
[...]
  <PointData Scalars="scalars">
    <DataArray type="Float32" Name="u" format="ascii">
0.310007 0.317768 0.384283 0.396553 0.304404 0.31169 0.373684 0.38485 0.317768 0.312035 0.396553 0.385041 0.31169 0.306322 0.38485 0.374733 0.312035 0.295826 0.385041 0.356183 0.306322 0.290867 0.374733 0.347632 0.295826 0.273102 0.356183 0.319532 0.290867 0.26943 0.347632 0.312517 0.273102 0.249285 0.319532 0.282072 0.26943 0.246281 0.312517 0.277837 0.249285 0.225733 0.282072 0.249176 0.246281 0.223543 0.277837 0.246201 0.225733 0.204307 0.249176 0.221162 0.223543 0.202668 0.246201 0.219098 0.204307 0.185405 0.221162 0.197773 0.202668 0.184179 0.219098 0.196281 0.185405 0.168964 0.197773 0.17818 0.184179 0.168033 0.196281 0.17709 0.168964 0.154526 0.17818 0.161782 0.168033 0.153816 0.17709 0.160964 0.384283 0.396553 0.50274 0.530219 0.373684 0.38485 0.478804 0.499893 0.396553 0.385041 0.530219 0.499399 0.38485 0.374733 0.499893 0.480997 0.385041 0.356183 0.499399 0.446388 0.374733 0.347632 0.480997 0.429724 0.356183 0.319532 0.446388 0.37782 0.347632 0.312517 0.429724 0.366352 0.319532 0.282072 0.37782 0.319472 0.312517 0.277837 0.366352 0.312464 0.282072 0.249176 0.319472 0.273089 0.277837 0.246201 0.312464 0.269311 0.249176 0.221162 0.273089 0.237685 0.246201 0.219098 0.269311 0.235077 0.221162 0.197773 0.237685 0.209319 0.219098 0.196281 0.235077 0.207561 0.197773 0.17818 0.209319 0.186521 0.196281 0.17709 0.207561 0.185267 0.17818 0.161782 0.186521 0.167954 0.17709 0.160964 0.185267 0.167037 0.50274 0.530219 0.73378 0.814451 0.478804 0.499893 0.660502 0.718739 0.530219 0.499399 0.814451 0.718078 0.499893 0.480997 0.718739 0.655785 0.37782 0.319472 0.442505 0.356279 0.366352 0.312464 0.427917 0.347707 0.319472 0.273089 0.356279 0.295834 0.312464 0.269311 0.347707 0.290857 0.273089 0.237685 0.295834 0.252094 0.269311 0.235077 0.290857 0.24937 0.237685 0.209319 0.252094 0.218971 0.235077 0.207561 0.24937 0.216873 0.209319 0.186521 0.218971 0.193263 0.207561 0.185267 0.216873 0.191852 0.186521 0.167954 0.193263 0.172802 0.185267 0.167037 0.191852 0.171805 0.567989 0.442505 0.720446 0.504863 0.534751 0.427917 0.65058 0.478738 0.442505 0.356279 0.504863 0.383968 0.427917 0.347707 0.478738 0.373795 0.356279 0.295834 0.383968 0.3125 0.347707 0.290857 0.373795 0.306448 0.295834 0.252094 0.3125 0.261771 0.290857 0.24937 0.306448 0.258159 0.252094 0.218971 0.261771 0.226026 0.24937 0.216873 0.258159 0.223219 0.218971 0.193263 0.226026 0.197662 0.216873 0.191852 0.223219 0.196204 0.193263 0.172802 0.197662 0.175937 0.191852 0.171805 0.196204 0.174862 0.3125 0.261771 0.321005 0.265361 0.306448 0.258159 0.312087 0.261755 0.261771 0.226026 0.265361 0.227976 0.258159 0.223219 0.261755 0.226031 0.226026 0.197662 0.227976 0.199304 0.223219 0.196204 0.226031 0.197665 0.197662 0.175937 0.199304 0.176997 0.196204 0.174862 0.197665 0.175939 0.321005 0.265361 0.312477 0.261779 0.312087 0.261755 0.306515 0.258172 0.265361 0.227976 0.261779 0.226033 0.261755 0.226031 0.258172 0.223225 0.227976 0.199304 0.226033 0.197666 0.226031 0.197665 0.223225 0.196208 0.199304 0.176997 0.197666 0.17594 0.197665 0.175939 0.196208 0.174865 0.504009 0.383961 0.445757 0.356507 0.48206 0.373487 0.429344 0.34789 0.383961 0.312477 0.356507 0.295883 0.373487 0.306515 0.34789 0.290901 0.312477 0.261779 0.295883 0.252118 0.306515 0.258172 0.290901 0.249389 0.261779 0.226033 0.252118 0.218983 0.258172 0.223225 0.249389 0.216883 0.226033 0.197666 0.218983 0.19327 0.223225 0.196208 0.216883 0.191858 0.197666 0.17594 0.19327 0.172807 0.196208 0.174865 0.191858 0.171811 0.733843 0.81455 0.502787 0.530282 0.660548 0.718812 0.478842 0.499939 0.81455 0.718386 0.530282 0.49948 0.718812 0.655963 0.499939 0.481068 0.445757 0.356507 0.376892 0.31924 0.429344 0.34789 0.367118 0.313137 0.356507 0.295883 0.31924 0.273201 0.34789 0.290901 0.313137 0.269291 0.295883 0.252118 0.273201 0.237703 0.290901 0.249389 0.269291 0.235107 0.252118 0.218983 0.237703 0.209334 0.249389 0.216883 0.235107 0.207573 0.218983 0.19327 0.209334 0.186529 0.216883 0.191858 0.207573 0.185275 0.19327 0.172807 0.186529 0.167961 0.191858 0.171811 0.185275 0.167043 0.502787 0.530282 0.384313 0.396585 0.478842 0.499939 0.373709 0.384875 0.530282 0.49948 0.396585 0.385067 0.499939 0.481068 0.384875 0.374755 0.49948 0.446611 0.385067 0.356171 0.481068 0.429591 0.374755 0.347669 0.446611 0.376892 0.356171 0.319179 0.429591 0.367118 0.347669 0.31309 0.376892 0.31924 0.319179 0.282047 0.367118 0.313137 0.31309 0.277795 0.31924 0.273201 0.282047 0.249208 0.313137 0.269291 0.277795 0.246253 0.273201 0.237703 0.249208 0.221187 0.269291 0.235107 0.246253 0.219113 0.237703 0.209334 0.221187 0.197787 0.235107 0.207573 0.219113 0.196294 0.209334 0.186529 0.197787 0.17819 0.207573 0.185275 0.196294 0.177098 0.186529 0.167961 0.17819 0.161789 0.185275 0.167043 0.177098 0.160971 0.384313 0.396585 0.310028 0.317788 0.373709 0.384875 0.304421 0.311707 0.396585 0.385067 0.317788 0.312051 0.384875 0.374755 0.311707 0.306334 0.385067 0.356171 0.312051 0.295844 0.374755 0.347669 0.306334 0.290874 0.356171 0.319179 0.295844 0.273233 0.347669 0.31309 0.290874 0.269317 0.319179 0.282047 0.273233 0.249296 0.31309 0.277795 0.269317 0.246337 0.282047 0.249208 0.249296 0.22575 0.277795 0.246253 0.246337 0.223547 0.249208 0.221187 0.22575 0.204326 0.246253 0.219113 0.223547 0.202687 0.221187 0.197787 0.204326 0.185418 0.219113 0.196294 0.202687 0.18419 0.197787 0.17819 0.185418 0.168973 0.196294 0.177098 0.18419 0.168041 0.17819 0.161789 0.168973 0.154534 0.177098 0.160971 0.168041 0.153823 0.304404 0.31169 0.373684 0.38485 0.289334 0.295425 0.347011 0.355902 0.31169 0.306322 0.38485 0.374733 0.295425 0.290745 0.355902 0.347596 0.306322 0.290867 0.374733 0.347632 0.290745 0.276806 0.347596 0.324296 0.290867 0.26943 0.347632 0.312517 0.276806 0.258683 0.324296 0.296342 0.26943 0.246281 0.312517 0.277837 0.258683 0.238027 0.296342 0.266092 0.246281 0.223543 0.277837 0.246201 0.238027 0.2173 0.266092 0.237941 0.223543 0.202668 0.246201 0.219098 0.2173 0.197979 0.237941 0.213212 0.202668 0.184179 0.219098 0.196281 0.197979 0.180635 0.213212 0.192005 0.184179 0.168033 0.196281 0.17709 0.180635 0.165327 0.192005 0.173929 0.168033 0.153816 0.17709 0.160964 0.165327 0.15174 0.173929 0.158584 0.373684 0.38485 0.478804 0.499893 0.347011 0.355902 0.430733 0.446688 0.38485 0.374733 0.499893 0.480997 0.355902 0.347596 0.446688 0.429753 0.374733 0.347632 0.480997 0.429724 0.347596 0.324296 0.429753 0.387605 0.347632 0.312517 0.429724 0.366352 0.324296 0.296342 0.387605 0.340609 0.312517 0.277837 0.366352 0.312464 0.296342 0.266092 0.340609 0.29633 0.277837 0.246201 0.312464 0.269311 0.266092 0.237941 0.29633 0.258636 0.246201 0.219098 0.269311 0.235077 0.237941 0.213212 0.258636 0.227792 0.219098 0.196281 0.235077 0.207561 0.213212 0.192005 0.227792 0.202502 0.196281 0.17709 0.207561 0.185267 0.192005 0.173929 0.202502 0.181656 0.17709 0.160964 0.185267 0.167037 0.173929 0.158584 0.181656 0.164377 0.366352 0.312464 0.427917 0.347707 0.340609 0.29633 0.387863 0.324352 0.312464 0.269311 0.347707 0.290857 0.29633 0.258636 0.324352 0.276748 0.269311 0.235077 0.290857 0.24937 0.258636 0.227792 0.276748 0.240348 0.235077 0.207561 0.24937 0.216873 0.227792 0.202502 0.240348 0.211167 0.207561 0.185267 0.216873 0.191852 0.202502 0.181656 0.211167 0.187822 0.185267 0.167037 0.191852 0.171805 0.181656 0.164377 0.187822 0.168908 0.427917 0.347707 0.478738 0.373795 0.387863 0.324352 0.430275 0.347782 0.347707 0.290857 0.373795 0.306448 0.324352 0.276748 0.347782 0.290891 0.290857 0.24937 0.306448 0.258159 0.276748 0.240348 0.290891 0.24938 0.24937 0.216873 0.258159 0.223219 0.240348 0.211167 0.24938 0.216879 0.216873 0.191852 0.223219 0.196204 0.211167 0.187822 0.216879 0.191858 0.191852 0.171805 0.196204 0.174862 0.187822 0.168908 0.191858 0.17181 0.478738 0.373795 0.508163 0.387369 0.430275 0.347782 0.444867 0.356628 0.373795 0.306448 0.387369 0.312087 0.347782 0.290891 0.356628 0.295953 0.306448 0.258159 0.312087 0.261755 0.290891 0.24938 0.295953 0.252136 0.258159 0.223219 0.261755 0.226031 0.24938 0.216879 0.252136 0.218979 0.223219 0.196204 0.226031 0.197665 0.216879 0.191858 0.218979 0.193273 0.196204 0.174862 0.197665 0.175939 0.191858 0.17181 0.193273 0.172807 0.508163 0.387369 0.48206 0.373487 0.444867 0.356628 0.429497 0.347768 0.387369 0.312087 0.373487 0.306515 0.356628 0.295953 0.347768 0.290904 0.312087 0.261755 0.306515 0.258172 0.295953 0.252136 0.290904 0.249387 0.261755 0.226031 0.258172 0.223225 0.252136 0.218979 0.249387 0.216883 0.226031 0.197665 0.223225 0.196208 0.218979 0.193273 0.216883 0.19186 0.197665 0.175939 0.196208 0.174865 0.193273 0.172807 0.19186 0.171812 0.48206 0.373487 0.429344 0.34789 0.429497 0.347768 0.387545 0.324477 0.373487 0.306515 0.34789 0.290901 0.347768 0.290904 0.324477 0.27676 0.306515 0.258172 0.290901 0.249389 0.290904 0.249387 0.27676 0.240362 0.258172 0.223225 0.249389 0.216883 0.249387 0.216883 0.240362 0.211174 0.223225 0.196208 0.216883 0.191858 0.216883 0.19186 0.211174 0.187827 0.196208 0.174865 0.191858 0.171811 0.19186 0.171812 0.187827 0.168912 0.429344 0.34789 0.367118 0.313137 0.387545 0.324477 0.340392 0.29621 0.34789 0.290901 0.313137 0.269291 0.324477 0.27676 0.29621 0.258688 0.290901 0.249389 0.269291 0.235107 0.27676 0.240362 0.258688 0.227802 0.249389 0.216883 0.235107 0.207573 0.240362 0.211174 0.227802 0.202511 0.216883 0.191858 0.207573 0.185275 0.211174 0.187827 0.202511 0.181662 0.191858 0.171811 0.185275 0.167043 0.187827 0.168912 0.181662 0.164382 0.478842 0.499939 0.373709 0.384875 0.430751 0.446709 0.347024 0.355912 0.499939 0.481068 0.384875 0.374755 0.446709 0.429739 0.355912 0.347597 0.481068 0.429591 0.374755 0.347669 0.429739 0.387576 0.347597 0.324306 0.429591 0.367118 0.347669 0.31309 0.387576 0.340392 0.324306 0.296185 0.367118 0.313137 0.31309 0.277795 0.340392 0.29621 0.296185 0.266084 0.313137 0.269291 0.277795 0.246253 0.29621 0.258688 0.266084 0.237952 0.269291 0.235107 0.246253 0.219113 0.258688 0.227802 0.237952 0.213224 0.235107 0.207573 0.219113 0.196294 0.227802 0.202511 0.213224 0.192014 0.207573 0.185275 0.196294 0.177098 0.202511 0.181662 0.192014 0.173936 0.185275 0.167043 0.177098 0.160971 0.181662 0.164382 0.173936 0.158589 0.373709 0.384875 0.304421 0.311707 0.347024 0.355912 0.289343 0.295432 0.384875 0.374755 0.311707 0.306334 0.355912 0.347597 0.295432 0.290746 0.374755 0.347669 0.306334 0.290874 0.347597 0.324306 0.290746 0.276789 0.347669 0.31309 0.290874 0.269317 0.324306 0.296185 0.276789 0.258732 0.31309 0.277795 0.269317 0.246337 0.296185 0.266084 0.258732 0.238027 0.277795 0.246253 0.246337 0.223547 0.266084 0.237952 0.238027 0.217306 0.246253 0.219113 0.223547 0.202687 0.237952 0.213224 0.217306 0.197988 0.219113 0.196294 0.202687 0.18419 0.213224 0.192014 0.197988 0.180643 0.196294 0.177098 0.18419 0.168041 0.192014 0.173936 0.180643 0.165334 0.177098 0.160971 0.168041 0.153823 0.173936 0.158589 0.165334 0.151746 0.289334 0.295425 0.347011 0.355902 0.268474 0.272858 0.312661 0.318894 0.295425 0.290745 0.355902 0.347596 0.272858 0.269122 0.318894 0.312959 0.290745 0.276806 0.347596 0.324296 0.269122 0.258661 0.312959 0.296138 0.276806 0.258683 0.324296 0.296342 0.258661 0.243395 0.296138 0.273834 0.258683 0.238027 0.296342 0.266092 0.243395 0.225898 0.273834 0.249451 0.238027 0.2173 0.266092 0.237941 0.225898 0.207939 0.249451 0.225814 0.2173 0.197979 0.237941 0.213212 0.207939 0.190821 0.225814 0.204351 0.197979 0.180635 0.213212 0.192005 0.190821 0.175146 0.204351 0.185451 0.180635 0.165327 0.192005 0.173929 0.175146 0.161088 0.185451 0.169012 0.165327 0.15174 0.173929 0.158584 0.161088 0.148455 0.169012 0.154835 0.347011 0.355902 0.430733 0.446688 0.312661 0.318894 0.367321 0.376794 0.355902 0.347596 0.446688 0.429753 0.318894 0.312959 0.376794 0.367073 0.347596 0.324296 0.429753 0.387605 0.312959 0.296138 0.367073 0.340389 0.324296 0.296342 0.387605 0.340609 0.296138 0.273834 0.340389 0.307483 0.296342 0.266092 0.340609 0.29633 0.273834 0.249451 0.307483 0.273833 0.266092 0.237941 0.29633 0.258636 0.249451 0.225814 0.273833 0.243335 0.237941 0.213212 0.258636 0.227792 0.225814 0.204351 0.243335 0.217078 0.213212 0.192005 0.227792 0.202502 0.204351 0.185451 0.217078 0.194843 0.192005 0.173929 0.202502 0.181656 0.185451 0.169012 0.194843 0.176073 0.173929 0.158584 0.181656 0.164377 0.169012 0.154835 0.176073 0.160212 0.387605 0.340609 0.460879 0.387863 0.340389 0.307483 0.387565 0.340561 0.340609 0.29633 0.387863 0.324352 0.307483 0.273833 0.340561 0.296326 0.29633 0.258636 0.324352 0.276748 0.273833 0.243335 0.296326 0.258587 0.258636 0.227792 0.276748 0.240348 0.243335 0.217078 0.258587 0.227778 0.227792 0.202502 0.240348 0.211167 0.217078 0.194843 0.227778 0.202506 0.202502 0.181656 0.211167 0.187822 0.194843 0.176073 0.202506 0.181668 0.181656 0.164377 0.187822 0.168908 0.176073 0.160212 0.181668 0.164392 0.387863 0.324352 0.430275 0.347782 0.340561 0.296326 0.366289 0.311977 0.324352 0.276748 0.347782 0.290891 0.296326 0.258587 0.311977 0.269257 0.276748 0.240348 0.290891 0.24938 0.258587 0.227778 0.269257 0.2351 0.240348 0.211167 0.24938 0.216879 0.227778 0.202506 0.2351 0.207568 0.211167 0.187822 0.216879 0.191858 0.202506 0.181668 0.207568 0.185286 0.187822 0.168908 0.191858 0.17181 0.181668 0.164392 0.185286 0.167057 0.660334 0.718847 0.733436 0.814703 0.478724 0.499926 0.502608 0.530271 0.718847 0.656051 0.814703 0.718542 0.499926 0.48107 0.530271 0.499509 0.430275 0.347782 0.444867 0.356628 0.366289 0.311977 0.377457 0.318996 0.347782 0.290891 0.356628 0.295953 0.311977 0.269257 0.318996 0.273769 0.290891 0.24938 0.295953 0.252136 0.269257 0.2351 0.273769 0.237657 0.24938 0.216879 0.252136 0.218979 0.2351 0.207568 0.237657 0.209336 0.216879 0.191858 0.218979 0.193273 0.207568 0.185286 0.209336 0.186542 0.191858 0.17181 0.193273 0.172807 0.185286 0.167057 0.186542 0.167976 0.733436 0.814703 0.660343 0.718865 0.502608 0.530271 0.478727 0.499924 0.814703 0.718542 0.718865 0.656042 0.530271 0.499509 0.499924 0.481046 0.444867 0.356628 0.429497 0.347768 0.377457 0.318996 0.366292 0.311949 0.356628 0.295953 0.347768 0.290904 0.318996 0.273769 0.311949 0.26926 0.295953 0.252136 0.290904 0.249387 0.273769 0.237657 0.26926 0.235102 0.252136 0.218979 0.249387 0.216883 0.237657 0.209336 0.235102 0.20757 0.218979 0.193273 0.216883 0.19186 0.209336 0.186542 0.20757 0.185288 0.193273 0.172807 0.19186 0.171812 0.186542 0.167976 0.185288 0.167059 0.429497 0.347768 0.387545 0.324477 0.366292 0.311949 0.34049 0.296277 0.347768 0.290904 0.324477 0.27676 0.311949 0.26926 0.296277 0.258591 0.290904 0.249387 0.27676 0.240362 0.26926 0.235102 0.258591 0.227782 0.249387 0.216883 0.240362 0.211174 0.235102 0.20757 0.227782 0.20251 0.216883 0.19186 0.211174 0.187827 0.20757 0.185288 0.20251 0.181671 0.19186 0.171812 0.187827 0.168912 0.185288 0.167059 0.181671 0.164395 0.46072 0.387545 0.387576 0.340392 0.387491 0.34049 0.340331 0.307423 0.387545 0.324477 0.340392 0.29621 0.34049 0.296277 0.307423 0.273803 0.324477 0.27676 0.29621 0.258688 0.296277 0.258591 0.273803 0.243325 0.27676 0.240362 0.258688 0.227802 0.258591 0.227782 0.243325 0.217084 0.240362 0.211174 0.227802 0.202511 0.227782 0.20251 0.217084 0.194847 0.211174 0.187827 0.202511 0.181662 0.20251 0.181671 0.194847 0.176077 0.187827 0.168912 0.181662 0.164382 0.181671 0.164395 0.176077 0.160215 0.430751 0.446709 0.347024 0.355912 0.367325 0.376792 0.312663 0.318893 0.446709 0.429739 0.355912 0.347597 0.376792 0.367055 0.318893 0.312949 0.429739 0.387576 0.347597 0.324306 0.367055 0.340331 0.312949 0.296104 0.387576 0.340392 0.324306 0.296185 0.340331 0.307423 0.296104 0.273804 0.340392 0.29621 0.296185 0.266084 0.307423 0.273803 0.273804 0.249418 0.29621 0.258688 0.266084 0.237952 0.273803 0.243325 0.249418 0.225809 0.258688 0.227802 0.237952 0.213224 0.243325 0.217084 0.225809 0.204354 0.227802 0.202511 0.213224 0.192014 0.217084 0.194847 0.204354 0.185455 0.202511 0.181662 0.192014 0.173936 0.194847 0.176077 0.185455 0.169016 0.181662 0.164382 0.173936 0.158589 0.176077 0.160215 0.169016 0.154839 0.347024 0.355912 0.289343 0.295432 0.312663 0.318893 0.268475 0.272857 0.355912 0.347597 0.295432 0.290746 0.318893 0.312949 0.272857 0.269114 0.347597 0.324306 0.290746 0.276789 0.312949 0.296104 0.269114 0.258645 0.324306 0.296185 0.276789 0.258732 0.296104 0.273804 0.258645 0.24336 0.296185 0.266084 0.258732 0.238027 0.273804 0.249418 0.24336 0.225882 0.266084 0.237952 0.238027 0.217306 0.249418 0.225809 0.225882 0.207935 0.237952 0.213224 0.217306 0.197988 0.225809 0.204354 0.207935 0.190823 0.213224 0.192014 0.197988 0.180643 0.204354 0.185455 0.190823 0.17515 0.192014 0.173936 0.180643 0.165334 0.185455 0.169016 0.17515 0.161092 0.173936 0.158589 0.165334 0.151746 0.169016 0.154839 0.161092 0.148459 0.268474 0.272858 0.312661 0.318894 0.245645 0.248931 0.277344 0.281688 0.272858 0.269122 0.318894 0.312959 0.248931 0.246096 0.281688 0.277558 0.269122 0.258661 0.312959 0.296138 0.246096 0.237891 0.277558 0.265931 0.258661 0.243395 0.296138 0.273834 0.237891 0.225828 0.265931 0.249373 0.243395 0.225898 0.273834 0.249451 0.225828 0.211581 0.249373 0.23053 0.225898 0.207939 0.249451 0.225814 0.211581 0.196609 0.23053 0.211516 0.207939 0.190821 0.225814 0.204351 0.196609 0.181957 0.211516 0.193581 0.190821 0.175146 0.204351 0.185451 0.181957 0.16822 0.193581 0.177289 0.175146 0.161088 0.185451 0.169012 0.16822 0.155654 0.177289 0.162768 0.161088 0.148455 0.169012 0.154835 0.155654 0.144184 0.162768 0.149996 0.312661 0.318894 0.367321 0.376794 0.277344 0.281688 0.3128 0.31829 0.318894 0.312959 0.376794 0.367073 0.281688 0.277558 0.31829 0.312294 0.312959 0.296138 0.367073 0.340389 0.277558 0.265931 0.312294 0.296095 0.296138 0.273834 0.340389 0.307483 0.265931 0.249373 0.296095 0.27374 0.273834 0.249451 0.307483 0.273833 0.249373 0.23053 0.27374 0.249377 0.249451 0.225814 0.273833 0.243335 0.23053 0.211516 0.249377 0.225754 0.225814 0.204351 0.243335 0.217078 0.211516 0.193581 0.225754 0.204317 0.204351 0.185451 0.217078 0.194843 0.193581 0.177289 0.204317 0.185443 0.185451 0.169012 0.194843 0.176073 0.177289 0.162768 0.185443 0.169046 0.169012 0.154835 0.176073 0.160212 0.162768 0.149996 0.169046 0.15487 0.367321 0.376794 0.430719 0.446703 0.3128 0.31829 0.347093 0.355861 0.376794 0.367073 0.446703 0.429748 0.31829 0.312294 0.355861 0.347463 0.367073 0.340389 0.429748 0.387565 0.312294 0.296095 0.347463 0.324147 0.340389 0.307483 0.387565 0.340561 0.296095 0.27374 0.324147 0.296196 0.307483 0.273833 0.340561 0.296326 0.27374 0.249377 0.296196 0.265911 0.273833 0.243335 0.296326 0.258587 0.249377 0.225754 0.265911 0.237833 0.243335 0.217078 0.258587 0.227778 0.225754 0.204317 0.237833 0.213166 0.217078 0.194843 0.227778 0.202506 0.204317 0.185443 0.213166 0.192001 0.194843 0.176073 0.202506 0.181668 0.185443 0.169046 0.192001 0.173978 0.176073 0.160212 0.181668 0.164392 0.169046 0.15487 0.173978 0.158637 0.430719 0.446703 0.478724 0.499926 0.347093 0.355861 0.37381 0.384894 0.446703 0.429748 0.499926 0.48107 0.355861 0.347463 0.384894 0.374666 0.429748 0.387565 0.48107 0.429758 0.347463 0.324147 0.374666 0.347446 0.387565 0.340561 0.429758 0.366289 0.324147 0.296196 0.347446 0.311822 0.340561 0.296326 0.366289 0.311977 0.296196 0.265911 0.311822 0.277525 0.296326 0.258587 0.311977 0.269257 0.265911 0.237833 0.277525 0.246113 0.258587 0.227778 0.269257 0.2351 0.237833 0.213166 0.246113 0.219068 0.227778 0.202506 0.2351 0.207568 0.213166 0.192001 0.219068 0.196284 0.202506 0.181668 0.207568 0.185286 0.192001 0.173978 0.196284 0.177148 0.181668 0.164392 0.185286 0.167057 0.173978 0.158637 0.177148 0.161026 0.478724 0.499926 0.502608 0.530271 0.37381 0.384894 0.384417 0.396617 0.499926 0.48107 0.530271 0.499509 0.384894 0.374666 0.396617 0.384993 0.48107 0.429758 0.499509 0.446524 0.374666 0.347446 0.384993 0.356014 0.429758 0.366289 0.446524 0.377457 0.347446 0.311822 0.356014 0.318842 0.366289 0.311977 0.377457 0.31