<?xml version="1.0" ?> 
<!-- 
# vtk DataFile Version 3.0
#This file was generated by the deal.II library on 16:47:52 at 2019/11/27
-->
<VTKFile type="UnstructuredGrid" version="0.1" byte_order="LittleEndian">
<UnstructuredGrid>
<Piece NumberOfPoints="29448" NumberOfCells="3681" >
  <Points>
    <DataArray type="Float32" NumberOfComponents="3" format="ascii">
-50 -50 0
-40 -50 0
-50 -40 0
-40 -40 0
-50 -50 10
-40 -50 10
-50 -40 10
-40 -40 10
-40 -50 0
-30 -50 0
-40 -40 0
-30 -40 0
-40 -50 10
-30 -50 10
-40 -40 10
-30 -40 10
-30 -50 0
-20 -50 0
-30 -40 0
-20 -40 0
-30 -50 10
-20 -50 10
-30 -40 10
-20 -40 10
-20 -50 0
-10 -50 0
-20 -40 0
-10 -40 0
-20 -50 10
-10 -50 10
-20 -40 10
-10 -40 10
-10 -50 0
0 -50 0
-10 -40 0
0 -40 0
-10 -50 10
0 -50 10
-10 -40 10
0 -40 10
0 -50 0
10 -50 0
0 -40 0
10 -40 0
0 -50 10
10 -50 10
0 -40 10
10 -40 10
10 -50 0
20 -50 0
10 -40 0
20 -40 0
10 -50 10
20 -50 10
10 -40 10
20 -40 10
20 -50 0
30 -50 0
20 -40 0
30 -40 0
20 -50 10
30 -50 10
20 -40 10
30 -40 10
30 -50 0
40 -50 0
30 -40 0
40 -40 0
30 -50 10
40 -50 10
30 -40 10
40 -40 10
40 -50 0
50 -50 0
40 -40 0
50 -40 0
40 -50 10
50 -50 10
40 -40 10
50 -40 10
-50 -40 0
-40 -40 0
-50 -30 0
-40 -30 0
-50 -40 10
-40 -40 10
-50 -30 10
-40 -30 10
-40 -40 0
-30 -40 0
-40 -30 0
-30 -30 0
-40 -40 10
-30 -40 10
-40 -30 10
-30 -30 10
-30 -40 0
-20 -40 0
-30 -30 0
-20 -30 0
-30 -40 10
-20 -40 10
-30 -30 10
-20 -30 10
-20 -40 0
-10 -40 0
-20 -30 0
-10 -30 0
-20 -40 10
-10 -40 10
-20 -30 10
-10 -30 10
-10 -40 0
0 -40 0
-10 -30 0
0 -30 0
-10 -40 10
0 -40 10
-10 -30 10
0 -30 10
0 -40 0
10 -40 0
0 -30 0
10 -30 0
0 -40 10
10 -40 10
0 -30 10
10 -30 10
10 -40 0
20 -40 0
10 -30 0
20 -30 0
10 -40 10
20 -40 10
10 -30 10
20 -30 10
20 -40 0
30 -40 0
20 -30 0
30 -30 0
20 -40 10
30 -40 10
20 -30 10
30 -30 10
30 -40 0
40 -40 0
30 -30 0
40 -30 0
30 -40 10
40 -40 10
30 -30 10
40 -30 10
40 -40 0
50 -40 0
40 -30 0
50 -30 0
40 -40 10
50 -40 10
40 -30 10
50 -30 10
-40 -30 0
-30 -30 0
-40 -20 0
-30 -20 0
-40 -30 10
-30 -30 10
-40 -20 10
-30 -20 10
-10 -30 0
0 -30 0
-10 -20 0
0 -20 0
-10 -30 10
0 -30 10
-10 -20 10
0 -20 10
0 -30 0
10 -30 0
0 -20 0
10 -20 0
0 -30 10
10 -30 10
0 -20 10
10 -20 10
10 -30 0
20 -30 0
10 -20 0
20 -20 0
10 -30 10
20 -30 10
10 -20 10
20 -20 10
20 -30 0
30 -30 0
20 -20 0
30 -20 0
20 -30 10
30 -30 10
20 -20 10
30 -20 10
30 -30 0
40 -30 0
30 -20 0
40 -20 0
30 -30 10
40 -30 10
30 -20 10
40 -20 10
40 -30 0
50 -30 0
40 -20 0
50 -20 0
40 -30 10
50 -30 10
40 -20 10
50 -20 10
-10 -20 0
0 -20 0
-10 -10 0
0 -10 0
-10 -20 10
0 -20 10
-10 -10 10
0 -10 10
0 -20 0
10 -20 0
0 -10 0
10 -10 0
0 -20 10
10 -20 10
0 -10 10
10 -10 10
10 -20 0
20 -20 0
10 -10 0
20 -10 0
10 -20 10
20 -20 10
10 -10 10
20 -10 10
20 -20 0
30 -20 0
20 -10 0
30 -10 0
20 -20 10
30 -20 10
20 -10 10
30 -10 10
30 -20 0
40 -20 0
30 -10 0
40 -10 0
30 -20 10
40 -20 10
30 -10 10
40 -10 10
40 -20 0
50 -20 0
40 -10 0
50 -10 0
40 -20 10
50 -20 10
40 -10 10
50 -10 10
10 -10 0
20 -10 0
10 0 0
20 0 0
10 -10 10
20 -10 10
10 0 10
20 0 10
20 -10 0
30 -10 0
20 0 0
30 0 0
20 -10 10
30 -10 10
20 0 10
30 0 10
30 -10 0
40 -10 0
30 0 0
40 0 0
30 -10 10
40 -10 10
30 0 10
40 0 10
40 -10 0
50 -10 0
40 0 0
50 0 0
40 -10 10
50 -10 10
40 0 10
50 0 10
10 0 0
20 0 0
10 10 0
20 10 0
10 0 10
20 0 10
10 10 10
20 10 10
20 0 0
30 0 0
20 10 0
30 10 0
20 0 10
30 0 10
20 10 10
30 10 10
30 0 0
40 0 0
30 10 0
40 10 0
30 0 10
40 0 10
30 10 10
40 10 10
40 0 0
50 0 0
40 10 0
50 10 0
40 0 10
50 0 10
40 10 10
50 10 10
-10 10 0
0 10 0
-10 20 0
0 20 0
-10 10 10
0 10 10
-10 20 10
0 20 10
0 10 0
10 10 0
0 20 0
10 20 0
0 10 10
10 10 10
0 20 10
10 20 10
10 10 0
20 10 0
10 20 0
20 20 0
10 10 10
20 10 10
10 20 10
20 20 10
20 10 0
30 10 0
20 20 0
30 20 0
20 10 10
30 10 10
20 20 10
30 20 10
30 10 0
40 10 0
30 20 0
40 20 0
30 10 10
40 10 10
30 20 10
40 20 10
40 10 0
50 10 0
40 20 0
50 20 0
40 10 10
50 10 10
40 20 10
50 20 10
-10 20 0
0 20 0
-10 30 0
0 30 0
-10 20 10
0 20 10
-10 30 10
0 30 10
0 20 0
10 20 0
0 30 0
10 30 0
0 20 10
10 20 10
0 30 10
10 30 10
10 20 0
20 20 0
10 30 0
20 30 0
10 20 10
20 20 10
10 30 10
20 30 10
20 20 0
30 20 0
20 30 0
30 30 0
20 20 10
30 20 10
20 30 10
30 30 10
30 20 0
40 20 0
30 30 0
40 30 0
30 20 10
40 20 10
30 30 10
40 30 10
40 20 0
50 20 0
40 30 0
50 30 0
40 20 10
50 20 10
40 30 10
50 30 10
-50 30 0
-40 30 0
-50 40 0
-40 40 0
-50 30 10
-40 30 10
-50 40 10
-40 40 10
-40 30 0
-30 30 0
-40 40 0
-30 40 0
-40 30 10
-30 30 10
-40 40 10
-30 40 10
-30 30 0
-20 30 0
-30 40 0
-20 40 0
-30 30 10
-20 30 10
-30 40 10
-20 40 10
-20 30 0
-10 30 0
-20 40 0
-10 40 0
-20 30 10
-10 30 10
-20 40 10
-10 40 10
-10 30 0
0 30 0
-10 40 0
0 40 0
-10 30 10
0 30 10
-10 40 10
0 40 10
0 30 0
10 30 0
0 40 0
10 40 0
0 30 10
10 30 10
0 40 10
10 40 10
10 30 0
20 30 0
10 40 0
20 40 0
10 30 10
20 30 10
10 40 10
20 40 10
20 30 0
30 30 0
20 40 0
30 40 0
20 30 10
30 30 10
20 40 10
30 40 10
30 30 0
40 30 0
30 40 0
40 40 0
30 30 10
40 30 10
30 40 10
40 40 10
40 30 0
50 30 0
40 40 0
50 40 0
40 30 10
50 30 10
40 40 10
50 40 10
-50 40 0
-40 40 0
-50 50 0
-40 50 0
-50 40 10
-40 40 10
-50 50 10
-40 50 10
-40 40 0
-30 40 0
-40 50 0
-30 50 0
-40 40 10
-30 40 10
-40 50 10
-30 50 10
-30 40 0
-20 40 0
-30 50 0
-20 50 0
-30 40 10
-20 40 10
-30 50 10
-20 50 10
-20 40 0
-10 40 0
-20 50 0
-10 50 0
-20 40 10
-10 40 10
-20 50 10
-10 50 10
-10 40 0
0 40 0
-10 50 0
0 50 0
-10 40 10
0 40 10
-10 50 10
0 50 10
0 40 0
10 40 0
0 50 0
10 50 0
0 40 10
10 40 10
0 50 10
10 50 10
10 40 0
20 40 0
10 50 0
20 50 0
10 40 10
20 40 10
10 50 10
20 50 10
20 40 0
30 40 0
20 50 0
30 50 0
20 40 10
30 40 10
20 50 10
30 50 10
30 40 0
40 40 0
30 50 0
40 50 0
30 40 10
40 40 10
30 50 10
40 50 10
40 40 0
50 40 0
40 50 0
50 50 0
40 40 10
50 40 10
40 50 10
50 50 10
-50 -50 10
-40 -50 10
-50 -40 10
-40 -40 10
-50 -50 20
-40 -50 20
-50 -40 20
-40 -40 20
-40 -50 10
-30 -50 10
-40 -40 10
-30 -40 10
-40 -50 20
-30 -50 20
-40 -40 20
-30 -40 20
-30 -50 10
-20 -50 10
-30 -40 10
-20 -40 10
-30 -50 20
-20 -50 20
-30 -40 20
-20 -40 20
-20 -50 10
-10 -50 10
-20 -40 10
-10 -40 10
-20 -50 20
-10 -50 20
-20 -40 20
-10 -40 20
-10 -50 10
0 -50 10
-10 -40 10
0 -40 10
-10 -50 20
0 -50 20
-10 -40 20
0 -40 20
0 -50 10
10 -50 10
0 -40 10
10 -40 10
0 -50 20
10 -50 20
0 -40 20
10 -40 20
10 -50 10
20 -50 10
10 -40 10
20 -40 10
10 -50 20
20 -50 20
10 -40 20
20 -40 20
20 -50 10
30 -50 10
20 -40 10
30 -40 10
20 -50 20
30 -50 20
20 -40 20
30 -40 20
30 -50 10
40 -50 10
30 -40 10
40 -40 10
30 -50 20
40 -50 20
30 -40 20
40 -40 20
40 -50 10
50 -50 10
40 -40 10
50 -40 10
40 -50 20
50 -50 20
40 -40 20
50 -40 20
-50 -40 10
-40 -40 10
-50 -30 10
-40 -30 10
-50 -40 20
-40 -40 20
-50 -30 20
-40 -30 20
-40 -40 10
-30 -40 10
-40 -30 10
-30 -30 10
-40 -40 20
-30 -40 20
-40 -30 20
-30 -30 20
-30 -40 10
-20 -40 10
-30 -30 10
-20 -30 10
-30 -40 20
-20 -40 20
-30 -30 20
-20 -30 20
-20 -40 10
-10 -40 10
-20 -30 10
-10 -30 10
-20 -40 20
-10 -40 20
-20 -30 20
-10 -30 20
-10 -40 10
0 -40 10
-10 -30 10
0 -30 10
-10 -40 20
0 -40 20
-10 -30 20
0 -30 20
0 -40 10
10 -40 10
0 -30 10
10 -30 10
0 -40 20
10 -40 20
0 -30 20
10 -30 20
10 -40 10
20 -40 10
10 -30 10
20 -30 10
10 -40 20
20 -40 20
10 -30 20
20 -30 20
20 -40 10
30 -40 10
20 -30 10
30 -30 10
20 -40 20
30 -40 20
20 -30 20
30 -30 20
30 -40 10
40 -40 10
30 -30 10
40 -30 10
30 -40 20
40 -40 20
30 -30 20
40 -30 20
40 -40 10
50 -40 10
40 -30 10
50 -30 10
40 -40 20
50 -40 20
40 -30 20
50 -30 20
0 -30 10
10 -30 10
0 -20 10
10 -20 10
0 -30 20
10 -30 20
0 -20 20
10 -20 20
10 -30 10
20 -30 10
10 -20 10
20 -20 10
10 -30 20
20 -30 20
10 -20 20
20 -20 20
20 -30 10
30 -30 10
20 -20 10
30 -20 10
20 -30 20
30 -30 20
20 -20 20
30 -20 20
30 -30 10
40 -30 10
30 -20 10
40 -20 10
30 -30 20
40 -30 20
30 -20 20
40 -20 20
40 -30 10
50 -30 10
40 -20 10
50 -20 10
40 -30 20
50 -30 20
40 -20 20
50 -20 20
0 -20 10
10 -20 10
0 -10 10
10 -10 10
0 -20 20
10 -20 20
0 -10 20
10 -10 20
10 -20 10
20 -20 10
10 -10 10
20 -10 10
10 -20 20
20 -20 20
10 -10 20
20 -10 20
20 -20 10
30 -20 10
20 -10 10
30 -10 10
20 -20 20
30 -20 20
20 -10 20
30 -10 20
30 -20 10
40 -20 10
30 -10 10
40 -10 10
30 -20 20
40 -20 20
30 -10 20
40 -10 20
40 -20 10
50 -20 10
40 -10 10
50 -10 10
40 -20 20
50 -20 20
40 -10 20
50 -10 20
0 -10 10
10 -10 10
0 0 10
10 0 10
0 -10 20
10 -10 20
0 0 20
10 0 20
10 -10 10
20 -10 10
10 0 10
20 0 10
10 -10 20
20 -10 20
10 0 20
20 0 20
20 -10 10
30 -10 10
20 0 10
30 0 10
20 -10 20
30 -10 20
20 0 20
30 0 20
30 -10 10
40 -10 10
30 0 10
40 0 10
30 -10 20
40 -10 20
30 0 20
40 0 20
40 -10 10
50 -10 10
40 0 10
50 0 10
40 -10 20
50 -10 20
40 0 20
50 0 20
-10 0 10
0 0 10
-10 10 10
0 10 10
-10 0 20
0 0 20
-10 10 20
0 10 20
0 0 10
10 0 10
0 10 10
10 10 10
0 0 20
10 0 20
0 10 20
10 10 20
10 0 10
20 0 10
10 10 10
20 10 10
10 0 20
20 0 20
10 10 20
20 10 20
20 0 10
30 0 10
20 10 10
30 10 10
20 0 20
30 0 20
20 10 20
30 10 20
30 0 10
40 0 10
30 10 10
40 10 10
30 0 20
40 0 20
30 10 20
40 10 20
40 0 10
50 0 10
40 10 10
50 10 10
40 0 20
50 0 20
40 10 20
50 10 20
0 10 10
10 10 10
0 20 10
10 20 10
0 10 20
10 10 20
0 20 20
10 20 20
10 10 10
20 10 10
10 20 10
20 20 10
10 10 20
20 10 20
10 20 20
20 20 20
20 10 10
30 10 10
20 20 10
30 20 10
20 10 20
30 10 20
20 20 20
30 20 20
30 10 10
40 10 10
30 20 10
40 20 10
30 10 20
40 10 20
30 20 20
40 20 20
40 10 10
50 10 10
40 20 10
50 20 10
40 10 20
50 10 20
40 20 20
50 20 20
0 20 10
10 20 10
0 30 10
10 30 10
0 20 20
10 20 20
0 30 20
10 30 20
10 20 10
20 20 10
10 30 10
20 30 10
10 20 20
20 20 20
10 30 20
20 30 20
20 20 10
30 20 10
20 30 10
30 30 10
20 20 20
30 20 20
20 30 20
30 30 20
30 20 10
40 20 10
30 30 10
40 30 10
30 20 20
40 20 20
30 30 20
40 30 20
40 20 10
50 20 10
40 30 10
50 30 10
40 20 20
50 20 20
40 30 20
50 30 20
-50 30 10
-40 30 10
-50 40 10
-40 40 10
-50 30 20
-40 30 20
-50 40 20
-40 40 20
-40 30 10
-30 30 10
-40 40 10
-30 40 10
-40 30 20
-30 30 20
-40 40 20
-30 40 20
-30 30 10
-20 30 10
-30 40 10
-20 40 10
-30 30 20
-20 30 20
-30 40 20
-20 40 20
-20 30 10
-10 30 10
-20 40 10
-10 40 10
-20 30 20
-10 30 20
-20 40 20
-10 40 20
-10 30 10
0 30 10
-10 40 10
0 40 10
-10 30 20
0 30 20
-10 40 20
0 40 20
0 30 10
[...]
  <PointData Scalars="scalars">
    <DataArray type="Float32" Name="u" format="ascii">
0.302961 0.316848 0.37204 0.394717 0.297595 0.310656 0.362303 0.38307 0.316848 0.317105 0.394717 0.394687 0.310656 0.31084 0.38307 0.382589 0.317105 0.305226 0.394687 0.372757 0.31084 0.299602 0.382589 0.362651 0.305226 0.284457 0.372757 0.337778 0.299602 0.280004 0.362651 0.330518 0.284457 0.261103 0.337778 0.299624 0.280004 0.257681 0.330518 0.294643 0.261103 0.236938 0.299624 0.264654 0.257681 0.234408 0.294643 0.26108 0.236938 0.214394 0.264654 0.234187 0.234408 0.212498 0.26108 0.231745 0.214394 0.19422 0.234187 0.208615 0.212498 0.192812 0.231745 0.206864 0.19422 0.17658 0.208615 0.187204 0.192812 0.175517 0.206864 0.185939 0.17658 0.161054 0.187204 0.169347 0.175517 0.160251 0.185939 0.168412 0.37204 0.394717 0.476391 0.524131 0.362303 0.38307 0.458368 0.498651 0.394717 0.394687 0.524131 0.523274 0.38307 0.382589 0.498651 0.492584 0.394687 0.372757 0.523274 0.477695 0.382589 0.362651 0.492584 0.456115 0.372757 0.337778 0.477695 0.408917 0.362651 0.330518 0.456115 0.395943 0.337778 0.299624 0.408917 0.345957 0.330518 0.294643 0.395943 0.337432 0.299624 0.264654 0.345957 0.294075 0.294643 0.26108 0.337432 0.289379 0.264654 0.234187 0.294075 0.254162 0.26108 0.231745 0.289379 0.250894 0.234187 0.208615 0.254162 0.222301 0.231745 0.206864 0.250894 0.220181 0.208615 0.187204 0.222301 0.196956 0.206864 0.185939 0.220181 0.195486 0.187204 0.169347 0.196956 0.176473 0.185939 0.168412 0.195486 0.17541 0.524131 0.523274 0.77161 0.771491 0.498651 0.492584 0.691882 0.693514 0.408917 0.345957 0.50123 0.395279 0.395943 0.337432 0.475126 0.383064 0.345957 0.294075 0.395279 0.32308 0.337432 0.289379 0.383064 0.316374 0.294075 0.254162 0.32308 0.272289 0.289379 0.250894 0.316374 0.26779 0.254162 0.222301 0.272289 0.233916 0.250894 0.220181 0.26779 0.231472 0.222301 0.196956 0.233916 0.20496 0.220181 0.195486 0.231472 0.203264 0.196956 0.176473 0.20496 0.182119 0.195486 0.17541 0.203264 0.180959 0.50123 0.395279 0.597521 0.438163 0.475126 0.383064 0.553471 0.420252 0.395279 0.32308 0.438163 0.344837 0.383064 0.316374 0.420252 0.336917 0.32308 0.272289 0.344837 0.284363 0.316374 0.26779 0.336917 0.279823 0.272289 0.233916 0.284363 0.242694 0.26779 0.231472 0.279823 0.239166 0.233916 0.20496 0.242694 0.21022 0.231472 0.203264 0.239166 0.208481 0.20496 0.182119 0.21022 0.185802 0.203264 0.180959 0.208481 0.184535 0.344837 0.284363 0.357163 0.289011 0.336917 0.279823 0.345036 0.284338 0.284363 0.242694 0.289011 0.245121 0.279823 0.239166 0.284338 0.242707 0.242694 0.21022 0.245121 0.212207 0.239166 0.208481 0.242707 0.210225 0.21022 0.185802 0.212207 0.187045 0.208481 0.184535 0.210225 0.185802 0.357163 0.289011 0.344732 0.284346 0.345036 0.284338 0.336944 0.27981 0.289011 0.245121 0.284346 0.242689 0.284338 0.242707 0.27981 0.239161 0.245121 0.212207 0.242689 0.210218 0.242707 0.210225 0.239161 0.208479 0.212207 0.187045 0.210218 0.1858 0.210225 0.185802 0.208479 0.184534 0.596825 0.438331 0.501442 0.395355 0.55534 0.419514 0.474947 0.383306 0.438331 0.344732 0.395355 0.323063 0.419514 0.336944 0.383306 0.316367 0.344732 0.284346 0.323063 0.27228 0.336944 0.27981 0.316367 0.267775 0.284346 0.242689 0.27228 0.23391 0.27981 0.239161 0.267775 0.231467 0.242689 0.210218 0.23391 0.204957 0.239161 0.208479 0.231467 0.203261 0.210218 0.1858 0.204957 0.182117 0.208479 0.184534 0.203261 0.180957 0.501442 0.395355 0.408915 0.345983 0.474947 0.383306 0.396005 0.337431 0.395355 0.323063 0.345983 0.294077 0.383306 0.316367 0.337431 0.289387 0.323063 0.27228 0.294077 0.25416 0.316367 0.267775 0.289387 0.250891 0.27228 0.23391 0.25416 0.222297 0.267775 0.231467 0.250891 0.220177 0.23391 0.204957 0.222297 0.196953 0.231467 0.203261 0.220177 0.195484 0.204957 0.182117 0.196953 0.176471 0.203261 0.180957 0.195484 0.175408 0.476236 0.523639 0.372005 0.394678 0.458231 0.498843 0.362287 0.383087 0.523639 0.522846 0.394678 0.394666 0.498843 0.492905 0.383087 0.382628 0.522846 0.477694 0.394666 0.372763 0.492905 0.456104 0.382628 0.362667 0.477694 0.408915 0.372763 0.337792 0.456104 0.396005 0.362667 0.330534 0.408915 0.345983 0.337792 0.299635 0.396005 0.337431 0.330534 0.294656 0.345983 0.294077 0.299635 0.26466 0.337431 0.289387 0.294656 0.261085 0.294077 0.25416 0.26466 0.234188 0.289387 0.250891 0.261085 0.231746 0.25416 0.222297 0.234188 0.208614 0.250891 0.220177 0.231746 0.206863 0.222297 0.196953 0.208614 0.187202 0.220177 0.195484 0.206863 0.185938 0.196953 0.176471 0.187202 0.169346 0.195484 0.175408 0.185938 0.16841 0.372005 0.394678 0.30295 0.316841 0.362287 0.383087 0.29759 0.310658 0.394678 0.394666 0.316841 0.317106 0.383087 0.382628 0.310658 0.310851 0.394666 0.372763 0.317106 0.305235 0.382628 0.362667 0.310851 0.299613 0.372763 0.337792 0.305235 0.284469 0.362667 0.330534 0.299613 0.280015 0.337792 0.299635 0.284469 0.261112 0.330534 0.294656 0.280015 0.257689 0.299635 0.26466 0.261112 0.236943 0.294656 0.261085 0.257689 0.234413 0.26466 0.234188 0.236943 0.214396 0.261085 0.231746 0.234413 0.212499 0.234188 0.208614 0.214396 0.19422 0.231746 0.206863 0.212499 0.192811 0.208614 0.187202 0.19422 0.176578 0.206863 0.185938 0.192811 0.175516 0.187202 0.169346 0.176578 0.161052 0.185938 0.16841 0.175516 0.160249 0.297595 0.310656 0.362303 0.38307 0.283127 0.294128 0.337013 0.35352 0.310656 0.31084 0.38307 0.382589 0.294128 0.294266 0.35352 0.353354 0.31084 0.299602 0.382589 0.362651 0.294266 0.283767 0.353354 0.337272 0.299602 0.280004 0.362651 0.330518 0.283767 0.26827 0.337272 0.310623 0.280004 0.257681 0.330518 0.294643 0.26827 0.24821 0.310623 0.280656 0.257681 0.234408 0.294643 0.26108 0.24821 0.227229 0.280656 0.251275 0.234408 0.212498 0.26108 0.231745 0.227229 0.207106 0.251275 0.224799 0.212498 0.192812 0.231745 0.206864 0.207106 0.188754 0.224799 0.201872 0.192812 0.175517 0.206864 0.185939 0.188754 0.17244 0.201872 0.182292 0.175517 0.160251 0.185939 0.168412 0.17244 0.15791 0.182292 0.165692 0.362303 0.38307 0.458368 0.498651 0.337013 0.35352 0.411121 0.437881 0.38307 0.382589 0.498651 0.492584 0.35352 0.353354 0.437881 0.436444 0.382589 0.362651 0.492584 0.456115 0.353354 0.337272 0.436444 0.410594 0.362651 0.330518 0.456115 0.395943 0.337272 0.310623 0.410594 0.363113 0.330518 0.294643 0.395943 0.337432 0.310623 0.280656 0.363113 0.317079 0.294643 0.26108 0.337432 0.289379 0.280656 0.251275 0.317079 0.276215 0.26108 0.231745 0.289379 0.250894 0.251275 0.224799 0.276215 0.242101 0.231745 0.206864 0.250894 0.220181 0.224799 0.201872 0.242101 0.21418 0.206864 0.185939 0.220181 0.195486 0.201872 0.182292 0.21418 0.191257 0.185939 0.168412 0.195486 0.17541 0.182292 0.165692 0.191257 0.17234 0.337432 0.289379 0.383064 0.316374 0.317079 0.276215 0.354487 0.298625 0.289379 0.250894 0.316374 0.26779 0.276215 0.242101 0.298625 0.257318 0.250894 0.220181 0.26779 0.231472 0.242101 0.21418 0.257318 0.224499 0.220181 0.195486 0.231472 0.203264 0.21418 0.191257 0.224499 0.198502 0.195486 0.17541 0.203264 0.180959 0.191257 0.17234 0.198502 0.177585 0.383064 0.316374 0.420252 0.336917 0.354487 0.298625 0.383905 0.31655 0.316374 0.26779 0.336917 0.279823 0.298625 0.257318 0.31655 0.26852 0.26779 0.231472 0.279823 0.239166 0.257318 0.224499 0.26852 0.231441 0.231472 0.203264 0.239166 0.208481 0.224499 0.198502 0.231441 0.203283 0.203264 0.180959 0.208481 0.184535 0.198502 0.177585 0.203283 0.180965 0.420252 0.336917 0.437633 0.345036 0.383905 0.31655 0.395335 0.323068 0.336917 0.279823 0.345036 0.284338 0.31655 0.26852 0.323068 0.271996 0.279823 0.239166 0.284338 0.242707 0.26852 0.231441 0.271996 0.234011 0.239166 0.208481 0.242707 0.210225 0.231441 0.203283 0.234011 0.20497 0.208481 0.184535 0.210225 0.185802 0.203283 0.180965 0.20497 0.182129 0.596147 0.437633 0.55534 0.419514 0.500886 0.395335 0.474984 0.383342 0.437633 0.345036 0.419514 0.336944 0.395335 0.323068 0.383342 0.316483 0.345036 0.284338 0.336944 0.27981 0.323068 0.271996 0.316483 0.268504 0.284338 0.242707 0.27981 0.239161 0.271996 0.234011 0.268504 0.231437 0.242707 0.210225 0.239161 0.208479 0.234011 0.20497 0.231437 0.203281 0.210225 0.185802 0.208479 0.184534 0.20497 0.182129 0.203281 0.180964 0.419514 0.336944 0.383306 0.316367 0.383342 0.316483 0.354598 0.298588 0.336944 0.27981 0.316367 0.267775 0.316483 0.268504 0.298588 0.257309 0.27981 0.239161 0.267775 0.231467 0.268504 0.231437 0.257309 0.224494 0.239161 0.208479 0.231467 0.203261 0.231437 0.203281 0.224494 0.1985 0.208479 0.184534 0.203261 0.180957 0.203281 0.180964 0.1985 0.177583 0.383306 0.316367 0.337431 0.289387 0.354598 0.298588 0.317093 0.276223 0.316367 0.267775 0.289387 0.250891 0.298588 0.257309 0.276223 0.242096 0.267775 0.231467 0.250891 0.220177 0.257309 0.224494 0.242096 0.214177 0.231467 0.203261 0.220177 0.195484 0.224494 0.1985 0.214177 0.191255 0.203261 0.180957 0.195484 0.175408 0.1985 0.177583 0.191255 0.172338 0.458231 0.498843 0.362287 0.383087 0.411117 0.437826 0.337008 0.353516 0.498843 0.492905 0.383087 0.382628 0.437826 0.436441 0.353516 0.353363 0.492905 0.456104 0.382628 0.362667 0.436441 0.410622 0.353363 0.337285 0.456104 0.396005 0.362667 0.330534 0.410622 0.363134 0.337285 0.310636 0.396005 0.337431 0.330534 0.294656 0.363134 0.317093 0.310636 0.280665 0.337431 0.289387 0.294656 0.261085 0.317093 0.276223 0.280665 0.251279 0.289387 0.250891 0.261085 0.231746 0.276223 0.242096 0.251279 0.2248 0.250891 0.220177 0.231746 0.206863 0.242096 0.214177 0.2248 0.201871 0.220177 0.195484 0.206863 0.185938 0.214177 0.191255 0.201871 0.18229 0.195484 0.175408 0.185938 0.16841 0.191255 0.172338 0.18229 0.16569 0.362287 0.383087 0.29759 0.310658 0.337008 0.353516 0.283125 0.294127 0.383087 0.382628 0.310658 0.310851 0.353516 0.353363 0.294127 0.294271 0.382628 0.362667 0.310851 0.299613 0.353363 0.337285 0.294271 0.283775 0.362667 0.330534 0.299613 0.280015 0.337285 0.310636 0.283775 0.268279 0.330534 0.294656 0.280015 0.257689 0.310636 0.280665 0.268279 0.248217 0.294656 0.261085 0.257689 0.234413 0.280665 0.251279 0.248217 0.227233 0.261085 0.231746 0.234413 0.212499 0.251279 0.2248 0.227233 0.207107 0.231746 0.206863 0.212499 0.192811 0.2248 0.201871 0.207107 0.188754 0.206863 0.185938 0.192811 0.175516 0.201871 0.18229 0.188754 0.172439 0.185938 0.16841 0.175516 0.160249 0.18229 0.16569 0.172439 0.157908 0.283127 0.294128 0.337013 0.35352 0.263477 0.271587 0.30466 0.316668 0.294128 0.294266 0.35352 0.353354 0.271587 0.271771 0.316668 0.316695 0.294266 0.283767 0.353354 0.337272 0.271771 0.264442 0.316695 0.304986 0.283767 0.26827 0.337272 0.310623 0.264442 0.251166 0.304986 0.285095 0.26827 0.24821 0.310623 0.280656 0.251166 0.234517 0.285095 0.261314 0.24821 0.227229 0.280656 0.251275 0.234517 0.216574 0.261314 0.23708 0.227229 0.207106 0.251275 0.224799 0.216574 0.19894 0.23708 0.214467 0.207106 0.188754 0.224799 0.201872 0.19894 0.182511 0.214467 0.19429 0.188754 0.17244 0.201872 0.182292 0.182511 0.167644 0.19429 0.176652 0.17244 0.15791 0.182292 0.165692 0.167644 0.154219 0.176652 0.16143 0.337013 0.35352 0.411121 0.437881 0.30466 0.316668 0.354729 0.372041 0.35352 0.353354 0.437881 0.436444 0.316668 0.316695 0.372041 0.372284 0.353354 0.337272 0.436444 0.410594 0.316695 0.304986 0.372284 0.353809 0.337272 0.310623 0.410594 0.363113 0.304986 0.285095 0.353809 0.323693 0.310623 0.280656 0.363113 0.317079 0.285095 0.261314 0.323693 0.289954 0.280656 0.251275 0.317079 0.276215 0.261314 0.23708 0.289954 0.257742 0.251275 0.224799 0.276215 0.242101 0.23708 0.214467 0.257742 0.229364 0.224799 0.201872 0.242101 0.21418 0.214467 0.19429 0.229364 0.205189 0.201872 0.182292 0.21418 0.191257 0.19429 0.176652 0.205189 0.184774 0.182292 0.165692 0.191257 0.17234 0.176652 0.16143 0.184774 0.16756 0.437881 0.436444 0.55045 0.550845 0.372041 0.372284 0.437813 0.436178 0.363113 0.317079 0.421299 0.354487 0.323693 0.289954 0.363113 0.317137 0.317079 0.276215 0.354487 0.298625 0.289954 0.257742 0.317137 0.276103 0.276215 0.242101 0.298625 0.257318 0.257742 0.229364 0.276103 0.242109 0.242101 0.21418 0.257318 0.224499 0.229364 0.205189 0.242109 0.214205 0.21418 0.191257 0.224499 0.198502 0.205189 0.184774 0.214205 0.191277 0.191257 0.17234 0.198502 0.177585 0.184774 0.16756 0.191277 0.172362 0.354487 0.298625 0.383905 0.31655 0.317137 0.276103 0.337446 0.289213 0.298625 0.257318 0.31655 0.26852 0.276103 0.242109 0.289213 0.250912 0.257318 0.224499 0.26852 0.231441 0.242109 0.214205 0.250912 0.220228 0.224499 0.198502 0.231441 0.203283 0.214205 0.191277 0.220228 0.195516 0.198502 0.177585 0.203283 0.180965 0.191277 0.172362 0.195516 0.175441 0.691937 0.69369 0.770784 0.77131 0.498681 0.495339 0.523943 0.523374 0.474333 0.383905 0.500886 0.395335 0.395884 0.337446 0.409077 0.346013 0.383905 0.31655 0.395335 0.323068 0.337446 0.289213 0.346013 0.294011 0.31655 0.26852 0.323068 0.271996 0.289213 0.250912 0.294011 0.25409 0.26852 0.231441 0.271996 0.234011 0.250912 0.220228 0.25409 0.222335 0.231441 0.203283 0.234011 0.20497 0.220228 0.195516 0.222335 0.196994 0.203283 0.180965 0.20497 0.182129 0.195516 0.175441 0.196994 0.176504 0.500886 0.395335 0.474984 0.383342 0.409077 0.346013 0.395909 0.337484 0.395335 0.323068 0.383342 0.316483 0.346013 0.294011 0.337484 0.289183 0.323068 0.271996 0.316483 0.268504 0.294011 0.25409 0.289183 0.250905 0.271996 0.234011 0.268504 0.231437 0.25409 0.222335 0.250905 0.220225 0.234011 0.20497 0.231437 0.203281 0.222335 0.196994 0.220225 0.195515 0.20497 0.182129 0.203281 0.180964 0.196994 0.176504 0.195515 0.17544 0.383342 0.316483 0.354598 0.298588 0.337484 0.289183 0.317123 0.276094 0.316483 0.268504 0.298588 0.257309 0.289183 0.250905 0.276094 0.242101 0.268504 0.231437 0.257309 0.224494 0.250905 0.220225 0.242101 0.214202 0.231437 0.203281 0.224494 0.1985 0.220225 0.195515 0.214202 0.191275 0.203281 0.180964 0.1985 0.177583 0.195515 0.17544 0.191275 0.172361 0.550464 0.550854 0.437826 0.436441 0.437765 0.436362 0.372047 0.372289 0.421352 0.354598 0.363134 0.317093 0.363069 0.317123 0.323719 0.289961 0.354598 0.298588 0.317093 0.276223 0.317123 0.276094 0.289961 0.257742 0.298588 0.257309 0.276223 0.242096 0.276094 0.242101 0.257742 0.229362 0.257309 0.224494 0.242096 0.214177 0.242101 0.214202 0.229362 0.205187 0.224494 0.1985 0.214177 0.191255 0.214202 0.191275 0.205187 0.184772 0.1985 0.177583 0.191255 0.172338 0.191275 0.172361 0.184772 0.167559 0.411117 0.437826 0.337008 0.353516 0.354715 0.372047 0.304656 0.316664 0.437826 0.436441 0.353516 0.353363 0.372047 0.372289 0.316664 0.316698 0.436441 0.410622 0.353363 0.337285 0.372289 0.353799 0.316698 0.304995 0.410622 0.363134 0.337285 0.310636 0.353799 0.323719 0.304995 0.285101 0.363134 0.317093 0.310636 0.280665 0.323719 0.289961 0.285101 0.26132 0.317093 0.276223 0.280665 0.251279 0.289961 0.257742 0.26132 0.237083 0.276223 0.242096 0.251279 0.2248 0.257742 0.229362 0.237083 0.214467 0.242096 0.214177 0.2248 0.201871 0.229362 0.205187 0.214467 0.194289 0.214177 0.191255 0.201871 0.18229 0.205187 0.184772 0.194289 0.176651 0.191255 0.172338 0.18229 0.16569 0.184772 0.167559 0.176651 0.161429 0.337008 0.353516 0.283125 0.294127 0.304656 0.316664 0.263475 0.271587 0.353516 0.353363 0.294127 0.294271 0.316664 0.316698 0.271587 0.271773 0.353363 0.337285 0.294271 0.283775 0.316698 0.304995 0.271773 0.264447 0.337285 0.310636 0.283775 0.268279 0.304995 0.285101 0.264447 0.251172 0.310636 0.280665 0.268279 0.248217 0.285101 0.26132 0.251172 0.234521 0.280665 0.251279 0.248217 0.227233 0.26132 0.237083 0.234521 0.216577 0.251279 0.2248 0.227233 0.207107 0.237083 0.214467 0.216577 0.198941 0.2248 0.201871 0.207107 0.188754 0.214467 0.194289 0.198941 0.18251 0.201871 0.18229 0.188754 0.172439 0.194289 0.176651 0.18251 0.167643 0.18229 0.16569 0.172439 0.157908 0.176651 0.161429 0.167643 0.154218 0.263477 0.271587 0.30466 0.316668 0.241628 0.247827 0.272081 0.280311 0.271587 0.271771 0.316668 0.316695 0.247827 0.247924 0.280311 0.280429 0.271771 0.264442 0.316695 0.304986 0.247924 0.242275 0.280429 0.272227 0.264442 0.251166 0.304986 0.285095 0.242275 0.231959 0.272227 0.257785 0.251166 0.234517 0.285095 0.261314 0.231959 0.218605 0.257785 0.239776 0.234517 0.216574 0.261314 0.23708 0.218605 0.203842 0.239776 0.22066 0.216574 0.19894 0.23708 0.214467 0.203842 0.188939 0.22066 0.202091 0.19894 0.182511 0.214467 0.19429 0.188939 0.174702 0.202091 0.184952 0.182511 0.167644 0.19429 0.176652 0.174702 0.161538 0.184952 0.169552 0.167644 0.154219 0.176652 0.16143 0.161538 0.149445 0.169552 0.155965 0.30466 0.316668 0.354729 0.372041 0.272081 0.280311 0.30458 0.316627 0.316668 0.316695 0.372041 0.372284 0.280311 0.280429 0.316627 0.31656 0.316695 0.304986 0.372284 0.353809 0.280429 0.272227 0.31656 0.304874 0.304986 0.285095 0.353809 0.323693 0.272227 0.257785 0.304874 0.285037 0.285095 0.261314 0.323693 0.289954 0.257785 0.239776 0.285037 0.261263 0.261314 0.23708 0.289954 0.257742 0.239776 0.22066 0.261263 0.237028 0.23708 0.214467 0.257742 0.229364 0.22066 0.202091 0.237028 0.214438 0.214467 0.19429 0.229364 0.205189 0.202091 0.184952 0.214438 0.194287 0.19429 0.176652 0.205189 0.184774 0.184952 0.169552 0.194287 0.176696 0.176652 0.16143 0.184774 0.16756 0.169552 0.155965 0.176696 0.161475 0.354729 0.372041 0.411068 0.437813 0.30458 0.316627 0.33706 0.353451 0.372041 0.372284 0.437813 0.436178 0.316627 0.31656 0.353451 0.353222 0.372284 0.353809 0.436178 0.410133 0.31656 0.304874 0.353222 0.336949 0.353809 0.323693 0.410133 0.363113 0.304874 0.285037 0.336949 0.310595 0.323693 0.289954 0.363113 0.317137 0.285037 0.261263 0.310595 0.28053 0.289954 0.257742 0.317137 0.276103 0.261263 0.237028 0.28053 0.251197 0.257742 0.229364 0.276103 0.242109 0.237028 0.214438 0.251197 0.224753 0.229364 0.205189 0.242109 0.214205 0.214438 0.194287 0.224753 0.201878 0.205189 0.184774 0.214205 0.191277 0.194287 0.176696 0.201878 0.182359 0.184774 0.16756 0.191277 0.172362 0.176696 0.161475 0.182359 0.165762 0.411068 0.437813 0.458146 0.498681 0.33706 0.353451 0.36231 0.383013 0.437813 0.436178 0.498681 0.495339 0.353451 0.353222 0.383013 0.382669 0.436178 0.410133 0.495339 0.457421 0.353222 0.336949 0.382669 0.362543 0.410133 0.363113 0.457421 0.395884 0.336949 0.310595 0.362543 0.329717 0.363113 0.317137 0.395884 0.337446 0.310595 0.28053 0.329717 0.294439 0.317137 0.276103 0.337446 0.289213 0.28053 0.251197 0.294439 0.260995 0.276103 0.242109 0.289213 0.250912 0.251197 0.224753 0.260995 0.231688 0.242109 0.214205 0.250912 0.220228 0.224753 0.201878 0.231688 0.206873 0.214205 0.191277 0.220228 0.195516 0.201878 0.182359 0.206873 0.18602 0.191277 0.172362 0.195516 0.175441 0.182359 0.165762 0.18602 0.168494 0.458146 0.498681 0.476071 0.523943 0.36231 0.383013 0.372003 0.394591 0.498681 0.495339 0.523943 0.523374 0.383013 0.382669 0.394591 0.394496 0.495339 0.457421 0.523374 0.477321 0.382669 0.362543 0.394496 0.372492 0.457421 0.395884 0.477321 0.409077 0.362543 0.329717 0.372492 0.33733 0.395884 0.337446 0.409077 0.346013 0.329717 0.294439 0.33733 0.299487 0.337446 0.289213 0.346013 0.294011 0.294439 0.260995 0.299487 0.264544 0.289213 0.250912 0.294011 0.25409 0.260995 0.231688 0.264544 0.234138 0.250912 0.220228 0.25409 0.222335 0.231688 0.206873 0.234138 0.208624 0.220228 0.195516 0.222335 0.196994 0.206873 0.18602 0.208624 0.187288 0.195516 0.175441 0.196994 0.176504 0.18602 0.168494 0.187288 0.169433 0.476071 0.523943 0.458041 0.498755 0.372003 0.394591 0.362286 0.38298 0.523943 0.523374 0.498755 0.492795 0.394591 0.394496 0.38298 0.382415 0.523374 0.477321 0.492795 0.456038 0.394496 0.372492 0.382415 0.36237 0.477321 0.409077 0.456038 0.395909 0.372492 0.33733 0.36237 0.329682 0.409077 0.346013 0.395909 0.337484 0.33733 0.299487 0.329682 0.294428 0.346013 0.294011 0.337484 0.289183 0.299487 0.264544 0.294428 0.260995 0.294011 0.25409 0.289183 0.250905 0.264544 0.234138 0.260995 0.231684 0.25409 0.222335 0.250905 0.220225 0.234138 0.208624 0.231684 0.206872 0.222335 0.196994 0.220225 0.195515 0.208624 0.187288 0.206872 0.18602 0.196994 0.176504 0.195515 0.