<?xml version="1.0" ?> 
<!-- 
# vtk DataFile Version 3.0
#This file was generated by the deal.II library on 16:49:04 at 2019/11/27
-->
<VTKFile type="UnstructuredGrid" version="0.1" byte_order="LittleEndian">
<UnstructuredGrid>
<Piece NumberOfPoints="72792" NumberOfCells="9099" >
  <Points>
    <DataArray type="Float32" NumberOfComponents="3" format="ascii">
-50 -50 0
-40 -50 0
-50 -40 0
-40 -40 0
-50 -50 10
-40 -50 10
-50 -40 10
-40 -40 10
-40 -50 0
-30 -50 0
-40 -40 0
-30 -40 0
-40 -50 10
-30 -50 10
-40 -40 10
-30 -40 10
-30 -50 0
-20 -50 0
-30 -40 0
-20 -40 0
-30 -50 10
-20 -50 10
-30 -40 10
-20 -40 10
-20 -50 0
-10 -50 0
-20 -40 0
-10 -40 0
-20 -50 10
-10 -50 10
-20 -40 10
-10 -40 10
-10 -50 0
0 -50 0
-10 -40 0
0 -40 0
-10 -50 10
0 -50 10
-10 -40 10
0 -40 10
0 -50 0
10 -50 0
0 -40 0
10 -40 0
0 -50 10
10 -50 10
0 -40 10
10 -40 10
10 -50 0
20 -50 0
10 -40 0
20 -40 0
10 -50 10
20 -50 10
10 -40 10
20 -40 10
20 -50 0
30 -50 0
20 -40 0
30 -40 0
20 -50 10
30 -50 10
20 -40 10
30 -40 10
30 -50 0
40 -50 0
30 -40 0
40 -40 0
30 -50 10
40 -50 10
30 -40 10
40 -40 10
40 -50 0
50 -50 0
40 -40 0
50 -40 0
40 -50 10
50 -50 10
40 -40 10
50 -40 10
-50 -40 0
-40 -40 0
-50 -30 0
-40 -30 0
-50 -40 10
-40 -40 10
-50 -30 10
-40 -30 10
-40 -40 0
-30 -40 0
-40 -30 0
-30 -30 0
-40 -40 10
-30 -40 10
-40 -30 10
-30 -30 10
-10 -40 0
0 -40 0
-10 -30 0
0 -30 0
-10 -40 10
0 -40 10
-10 -30 10
0 -30 10
0 -40 0
10 -40 0
0 -30 0
10 -30 0
0 -40 10
10 -40 10
0 -30 10
10 -30 10
10 -40 0
20 -40 0
10 -30 0
20 -30 0
10 -40 10
20 -40 10
10 -30 10
20 -30 10
20 -40 0
30 -40 0
20 -30 0
30 -30 0
20 -40 10
30 -40 10
20 -30 10
30 -30 10
30 -40 0
40 -40 0
30 -30 0
40 -30 0
30 -40 10
40 -40 10
30 -30 10
40 -30 10
40 -40 0
50 -40 0
40 -30 0
50 -30 0
40 -40 10
50 -40 10
40 -30 10
50 -30 10
0 -30 0
10 -30 0
0 -20 0
10 -20 0
0 -30 10
10 -30 10
0 -20 10
10 -20 10
10 -30 0
20 -30 0
10 -20 0
20 -20 0
10 -30 10
20 -30 10
10 -20 10
20 -20 10
20 -30 0
30 -30 0
20 -20 0
30 -20 0
20 -30 10
30 -30 10
20 -20 10
30 -20 10
30 -30 0
40 -30 0
30 -20 0
40 -20 0
30 -30 10
40 -30 10
30 -20 10
40 -20 10
40 -30 0
50 -30 0
40 -20 0
50 -20 0
40 -30 10
50 -30 10
40 -20 10
50 -20 10
10 -20 0
20 -20 0
10 -10 0
20 -10 0
10 -20 10
20 -20 10
10 -10 10
20 -10 10
20 -20 0
30 -20 0
20 -10 0
30 -10 0
20 -20 10
30 -20 10
20 -10 10
30 -10 10
30 -20 0
40 -20 0
30 -10 0
40 -10 0
30 -20 10
40 -20 10
30 -10 10
40 -10 10
40 -20 0
50 -20 0
40 -10 0
50 -10 0
40 -20 10
50 -20 10
40 -10 10
50 -10 10
20 -10 0
30 -10 0
20 0 0
30 0 0
20 -10 10
30 -10 10
20 0 10
30 0 10
30 -10 0
40 -10 0
30 0 0
40 0 0
30 -10 10
40 -10 10
30 0 10
40 0 10
40 -10 0
50 -10 0
40 0 0
50 0 0
40 -10 10
50 -10 10
40 0 10
50 0 10
20 0 0
30 0 0
20 10 0
30 10 0
20 0 10
30 0 10
20 10 10
30 10 10
30 0 0
40 0 0
30 10 0
40 10 0
30 0 10
40 0 10
30 10 10
40 10 10
40 0 0
50 0 0
40 10 0
50 10 0
40 0 10
50 0 10
40 10 10
50 10 10
10 10 0
20 10 0
10 20 0
20 20 0
10 10 10
20 10 10
10 20 10
20 20 10
20 10 0
30 10 0
20 20 0
30 20 0
20 10 10
30 10 10
20 20 10
30 20 10
30 10 0
40 10 0
30 20 0
40 20 0
30 10 10
40 10 10
30 20 10
40 20 10
40 10 0
50 10 0
40 20 0
50 20 0
40 10 10
50 10 10
40 20 10
50 20 10
0 20 0
10 20 0
0 30 0
10 30 0
0 20 10
10 20 10
0 30 10
10 30 10
10 20 0
20 20 0
10 30 0
20 30 0
10 20 10
20 20 10
10 30 10
20 30 10
20 20 0
30 20 0
20 30 0
30 30 0
20 20 10
30 20 10
20 30 10
30 30 10
30 20 0
40 20 0
30 30 0
40 30 0
30 20 10
40 20 10
30 30 10
40 30 10
40 20 0
50 20 0
40 30 0
50 30 0
40 20 10
50 20 10
40 30 10
50 30 10
-50 30 0
-40 30 0
-50 40 0
-40 40 0
-50 30 10
-40 30 10
-50 40 10
-40 40 10
-40 30 0
-30 30 0
-40 40 0
-30 40 0
-40 30 10
-30 30 10
-40 40 10
-30 40 10
-10 30 0
0 30 0
-10 40 0
0 40 0
-10 30 10
0 30 10
-10 40 10
0 40 10
0 30 0
10 30 0
0 40 0
10 40 0
0 30 10
10 30 10
0 40 10
10 40 10
10 30 0
20 30 0
10 40 0
20 40 0
10 30 10
20 30 10
10 40 10
20 40 10
20 30 0
30 30 0
20 40 0
30 40 0
20 30 10
30 30 10
20 40 10
30 40 10
30 30 0
40 30 0
30 40 0
40 40 0
30 30 10
40 30 10
30 40 10
40 40 10
40 30 0
50 30 0
40 40 0
50 40 0
40 30 10
50 30 10
40 40 10
50 40 10
-50 40 0
-40 40 0
-50 50 0
-40 50 0
-50 40 10
-40 40 10
-50 50 10
-40 50 10
-40 40 0
-30 40 0
-40 50 0
-30 50 0
-40 40 10
-30 40 10
-40 50 10
-30 50 10
-30 40 0
-20 40 0
-30 50 0
-20 50 0
-30 40 10
-20 40 10
-30 50 10
-20 50 10
-20 40 0
-10 40 0
-20 50 0
-10 50 0
-20 40 10
-10 40 10
-20 50 10
-10 50 10
-10 40 0
0 40 0
-10 50 0
0 50 0
-10 40 10
0 40 10
-10 50 10
0 50 10
0 40 0
10 40 0
0 50 0
10 50 0
0 40 10
10 40 10
0 50 10
10 50 10
10 40 0
20 40 0
10 50 0
20 50 0
10 40 10
20 40 10
10 50 10
20 50 10
20 40 0
30 40 0
20 50 0
30 50 0
20 40 10
30 40 10
20 50 10
30 50 10
30 40 0
40 40 0
30 50 0
40 50 0
30 40 10
40 40 10
30 50 10
40 50 10
40 40 0
50 40 0
40 50 0
50 50 0
40 40 10
50 40 10
40 50 10
50 50 10
-50 -50 10
-40 -50 10
-50 -40 10
-40 -40 10
-50 -50 20
-40 -50 20
-50 -40 20
-40 -40 20
-40 -50 10
-30 -50 10
-40 -40 10
-30 -40 10
-40 -50 20
-30 -50 20
-40 -40 20
-30 -40 20
-30 -50 10
-20 -50 10
-30 -40 10
-20 -40 10
-30 -50 20
-20 -50 20
-30 -40 20
-20 -40 20
-20 -50 10
-10 -50 10
-20 -40 10
-10 -40 10
-20 -50 20
-10 -50 20
-20 -40 20
-10 -40 20
-10 -50 10
0 -50 10
-10 -40 10
0 -40 10
-10 -50 20
0 -50 20
-10 -40 20
0 -40 20
0 -50 10
10 -50 10
0 -40 10
10 -40 10
0 -50 20
10 -50 20
0 -40 20
10 -40 20
10 -50 10
20 -50 10
10 -40 10
20 -40 10
10 -50 20
20 -50 20
10 -40 20
20 -40 20
20 -50 10
30 -50 10
20 -40 10
30 -40 10
20 -50 20
30 -50 20
20 -40 20
30 -40 20
30 -50 10
40 -50 10
30 -40 10
40 -40 10
30 -50 20
40 -50 20
30 -40 20
40 -40 20
40 -50 10
50 -50 10
40 -40 10
50 -40 10
40 -50 20
50 -50 20
40 -40 20
50 -40 20
-50 -40 10
-40 -40 10
-50 -30 10
-40 -30 10
-50 -40 20
-40 -40 20
-50 -30 20
-40 -30 20
-20 -40 10
-10 -40 10
-20 -30 10
-10 -30 10
-20 -40 20
-10 -40 20
-20 -30 20
-10 -30 20
-10 -40 10
0 -40 10
-10 -30 10
0 -30 10
-10 -40 20
0 -40 20
-10 -30 20
0 -30 20
0 -40 10
10 -40 10
0 -30 10
10 -30 10
0 -40 20
10 -40 20
0 -30 20
10 -30 20
10 -40 10
20 -40 10
10 -30 10
20 -30 10
10 -40 20
20 -40 20
10 -30 20
20 -30 20
20 -40 10
30 -40 10
20 -30 10
30 -30 10
20 -40 20
30 -40 20
20 -30 20
30 -30 20
30 -40 10
40 -40 10
30 -30 10
40 -30 10
30 -40 20
40 -40 20
30 -30 20
40 -30 20
40 -40 10
50 -40 10
40 -30 10
50 -30 10
40 -40 20
50 -40 20
40 -30 20
50 -30 20
0 -30 10
10 -30 10
0 -20 10
10 -20 10
0 -30 20
10 -30 20
0 -20 20
10 -20 20
10 -30 10
20 -30 10
10 -20 10
20 -20 10
10 -30 20
20 -30 20
10 -20 20
20 -20 20
20 -30 10
30 -30 10
20 -20 10
30 -20 10
20 -30 20
30 -30 20
20 -20 20
30 -20 20
30 -30 10
40 -30 10
30 -20 10
40 -20 10
30 -30 20
40 -30 20
30 -20 20
40 -20 20
40 -30 10
50 -30 10
40 -20 10
50 -20 10
40 -30 20
50 -30 20
40 -20 20
50 -20 20
0 -20 10
10 -20 10
0 -10 10
10 -10 10
0 -20 20
10 -20 20
0 -10 20
10 -10 20
10 -20 10
20 -20 10
10 -10 10
20 -10 10
10 -20 20
20 -20 20
10 -10 20
20 -10 20
20 -20 10
30 -20 10
20 -10 10
30 -10 10
20 -20 20
30 -20 20
20 -10 20
30 -10 20
30 -20 10
40 -20 10
30 -10 10
40 -10 10
30 -20 20
40 -20 20
30 -10 20
40 -10 20
40 -20 10
50 -20 10
40 -10 10
50 -10 10
40 -20 20
50 -20 20
40 -10 20
50 -10 20
10 -10 10
20 -10 10
10 0 10
20 0 10
10 -10 20
20 -10 20
10 0 20
20 0 20
20 -10 10
30 -10 10
20 0 10
30 0 10
20 -10 20
30 -10 20
20 0 20
30 0 20
30 -10 10
40 -10 10
30 0 10
40 0 10
30 -10 20
40 -10 20
30 0 20
40 0 20
40 -10 10
50 -10 10
40 0 10
50 0 10
40 -10 20
50 -10 20
40 0 20
50 0 20
10 0 10
20 0 10
10 10 10
20 10 10
10 0 20
20 0 20
10 10 20
20 10 20
20 0 10
30 0 10
20 10 10
30 10 10
20 0 20
30 0 20
20 10 20
30 10 20
30 0 10
40 0 10
30 10 10
40 10 10
30 0 20
40 0 20
30 10 20
40 10 20
40 0 10
50 0 10
40 10 10
50 10 10
40 0 20
50 0 20
40 10 20
50 10 20
0 10 10
10 10 10
0 20 10
10 20 10
0 10 20
10 10 20
0 20 20
10 20 20
10 10 10
20 10 10
10 20 10
20 20 10
10 10 20
20 10 20
10 20 20
20 20 20
20 10 10
30 10 10
20 20 10
30 20 10
20 10 20
30 10 20
20 20 20
30 20 20
30 10 10
40 10 10
30 20 10
40 20 10
30 10 20
40 10 20
30 20 20
40 20 20
40 10 10
50 10 10
40 20 10
50 20 10
40 10 20
50 10 20
40 20 20
50 20 20
0 20 10
10 20 10
0 30 10
10 30 10
0 20 20
10 20 20
0 30 20
10 30 20
10 20 10
20 20 10
10 30 10
20 30 10
10 20 20
20 20 20
10 30 20
20 30 20
20 20 10
30 20 10
20 30 10
30 30 10
20 20 20
30 20 20
20 30 20
30 30 20
30 20 10
40 20 10
30 30 10
40 30 10
30 20 20
40 20 20
30 30 20
40 30 20
40 20 10
50 20 10
40 30 10
50 30 10
40 20 20
50 20 20
40 30 20
50 30 20
-50 30 10
-40 30 10
-50 40 10
-40 40 10
-50 30 20
-40 30 20
-50 40 20
-40 40 20
-20 30 10
-10 30 10
-20 40 10
-10 40 10
-20 30 20
-10 30 20
-20 40 20
-10 40 20
-10 30 10
0 30 10
-10 40 10
0 40 10
-10 30 20
0 30 20
-10 40 20
0 40 20
0 30 10
10 30 10
0 40 10
10 40 10
0 30 20
10 30 20
0 40 20
10 40 20
10 30 10
20 30 10
10 40 10
20 40 10
10 30 20
20 30 20
10 40 20
20 40 20
20 30 10
30 30 10
20 40 10
30 40 10
20 30 20
30 30 20
20 40 20
30 40 20
30 30 10
40 30 10
30 40 10
40 40 10
30 30 20
40 30 20
30 40 20
40 40 20
40 30 10
50 30 10
40 40 10
50 40 10
40 30 20
50 30 20
40 40 20
50 40 20
-50 40 10
-40 40 10
-50 50 10
-40 50 10
-50 40 20
-40 40 20
-50 50 20
-40 50 20
-40 40 10
-30 40 10
-40 50 10
-30 50 10
-40 40 20
-30 40 20
-40 50 20
-30 50 20
-30 40 10
-20 40 10
-30 50 10
-20 50 10
-30 40 20
-20 40 20
-30 50 20
-20 50 20
-20 40 10
-10 40 10
-20 50 10
-10 50 10
-20 40 20
-10 40 20
-20 50 20
-10 50 20
-10 40 10
0 40 10
-10 50 10
0 50 10
-10 40 20
0 40 20
-10 50 20
0 50 20
0 40 10
10 40 10
0 50 10
10 50 10
0 40 20
10 40 20
0 50 20
10 50 20
10 40 10
20 40 10
10 50 10
20 50 10
10 40 20
20 40 20
10 50 20
20 50 20
20 40 10
30 40 10
20 50 10
30 50 10
20 40 20
30 40 20
20 50 20
30 50 20
30 40 10
40 40 10
30 50 10
40 50 10
30 40 20
40 40 20
30 50 20
40 50 20
40 40 10
50 40 10
40 50 10
50 50 10
40 40 20
50 40 20
40 50 20
50 50 20
-50 -50 20
-40 -50 20
-50 -40 20
-40 -40 20
-50 -50 30
-40 -50 30
-50 -40 30
-40 -40 30
-40 -50 20
-30 -50 20
-40 -40 20
-30 -40 20
-40 -50 30
-30 -50 30
-40 -40 30
-30 -40 30
-30 -50 20
-20 -50 20
-30 -40 20
-20 -40 20
-30 -50 30
-20 -50 30
-30 -40 30
-20 -40 30
-20 -50 20
-10 -50 20
-20 -40 20
-10 -40 20
-20 -50 30
-10 -50 30
-20 -40 30
-10 -40 30
-10 -50 20
0 -50 20
-10 -40 20
0 -40 20
-10 -50 30
[...]
  <PointData Scalars="scalars">
    <DataArray type="Float32" Name="u" format="ascii">
0.293239 0.312151 0.355428 0.386054 0.288462 0.306197 0.346966 0.375115 0.312151 0.318729 0.386054 0.397923 0.306197 0.312449 0.375115 0.385977 0.318729 0.312495 0.397923 0.385943 0.312449 0.306579 0.385977 0.375072 0.312495 0.295721 0.385943 0.355887 0.306579 0.290673 0.375072 0.347263 0.295721 0.272805 0.355887 0.318201 0.290673 0.268929 0.347263 0.312089 0.272805 0.248749 0.318201 0.281531 0.268929 0.245819 0.312089 0.2773 0.248749 0.22533 0.281531 0.248713 0.245819 0.223142 0.2773 0.245771 0.22533 0.203941 0.248713 0.220811 0.223142 0.202309 0.245771 0.218742 0.203941 0.185048 0.220811 0.197389 0.202309 0.183826 0.218742 0.195908 0.185048 0.168336 0.197389 0.177884 0.183826 0.167419 0.195908 0.176799 0.355428 0.386054 0.446216 0.506992 0.346966 0.375115 0.429539 0.482631 0.386054 0.397923 0.506992 0.530794 0.375115 0.385977 0.482631 0.502879 0.355887 0.318201 0.443333 0.375466 0.347263 0.312089 0.42762 0.365455 0.318201 0.281531 0.375466 0.318047 0.312089 0.2773 0.365455 0.311941 0.281531 0.248713 0.318047 0.273003 0.2773 0.245771 0.311941 0.269125 0.248713 0.220811 0.273003 0.237283 0.245771 0.218742 0.269125 0.234708 0.220811 0.197389 0.237283 0.20893 0.218742 0.195908 0.234708 0.207174 0.197389 0.177884 0.20893 0.186197 0.195908 0.176799 0.207174 0.184952 0.375466 0.318047 0.443157 0.355814 0.365455 0.311941 0.427327 0.347193 0.318047 0.273003 0.355814 0.295727 0.311941 0.269125 0.347193 0.290821 0.273003 0.237283 0.295727 0.251582 0.269125 0.234708 0.290821 0.248516 0.237283 0.20893 0.251582 0.218552 0.234708 0.207174 0.248516 0.216535 0.20893 0.186197 0.218552 0.192865 0.207174 0.184952 0.216535 0.191477 0.355814 0.295727 0.38536 0.311958 0.347193 0.290821 0.375096 0.305791 0.295727 0.251582 0.311958 0.262087 0.290821 0.248516 0.305791 0.258787 0.251582 0.218552 0.262087 0.225014 0.248516 0.216535 0.258787 0.22276 0.218552 0.192865 0.225014 0.19722 0.216535 0.191477 0.22276 0.195744 0.311958 0.262087 0.32055 0.265591 0.305791 0.258787 0.311943 0.262084 0.262087 0.225014 0.265591 0.227331 0.258787 0.22276 0.262084 0.225014 0.225014 0.19722 0.227331 0.198736 0.22276 0.195744 0.225014 0.197218 0.32055 0.265591 0.311931 0.26208 0.311943 0.262084 0.305783 0.258782 0.265591 0.227331 0.26208 0.225012 0.262084 0.225014 0.258782 0.222758 0.227331 0.198736 0.225012 0.197219 0.225014 0.197218 0.222758 0.195743 0.38528 0.311931 0.355728 0.295704 0.374999 0.305783 0.347152 0.290807 0.311931 0.26208 0.295704 0.251574 0.305783 0.258782 0.290807 0.248509 0.26208 0.225012 0.251574 0.218548 0.258782 0.222758 0.248509 0.216532 0.225012 0.197219 0.218548 0.192863 0.222758 0.195743 0.216532 0.191475 0.443231 0.355728 0.375481 0.318036 0.427542 0.347152 0.365461 0.311941 0.355728 0.295704 0.318036 0.272992 0.347152 0.290807 0.311941 0.269118 0.295704 0.251574 0.272992 0.237277 0.290807 0.248509 0.269118 0.234703 0.251574 0.218548 0.237277 0.208927 0.248509 0.216532 0.234703 0.207171 0.218548 0.192863 0.208927 0.186194 0.216532 0.191475 0.207171 0.18495 0.44622 0.506975 0.355419 0.386039 0.429544 0.482606 0.346959 0.375105 0.506975 0.530865 0.386039 0.397914 0.482606 0.503299 0.375105 0.385995 0.443354 0.375481 0.35589 0.318203 0.427629 0.365461 0.347267 0.312094 0.375481 0.318036 0.318203 0.281532 0.365461 0.311941 0.312094 0.277301 0.318036 0.272992 0.281532 0.248711 0.311941 0.269118 0.277301 0.245769 0.272992 0.237277 0.248711 0.220807 0.269118 0.234703 0.245769 0.21874 0.237277 0.208927 0.220807 0.197387 0.234703 0.207171 0.21874 0.195905 0.208927 0.186194 0.197387 0.177882 0.207171 0.18495 0.195905 0.176797 0.355419 0.386039 0.29323 0.312139 0.346959 0.375105 0.288455 0.306187 0.386039 0.397914 0.312139 0.318718 0.375105 0.385995 0.306187 0.312443 0.397914 0.385937 0.318718 0.312488 0.385995 0.375069 0.312443 0.306574 0.385937 0.35589 0.312488 0.295721 0.375069 0.347267 0.306574 0.290674 0.35589 0.318203 0.295721 0.272807 0.347267 0.312094 0.290674 0.268931 0.318203 0.281532 0.272807 0.248749 0.312094 0.277301 0.268931 0.24582 0.281532 0.248711 0.248749 0.225329 0.277301 0.245769 0.24582 0.223141 0.248711 0.220807 0.225329 0.203939 0.245769 0.21874 0.223141 0.202307 0.220807 0.197387 0.203939 0.185046 0.21874 0.195905 0.202307 0.183824 0.197387 0.177882 0.185046 0.168334 0.195905 0.176797 0.183824 0.167417 0.288462 0.306197 0.346966 0.375115 0.275529 0.289328 0.325161 0.346962 0.306197 0.312449 0.375115 0.385977 0.289328 0.295599 0.346962 0.355925 0.312449 0.306579 0.385977 0.375072 0.295599 0.290649 0.355925 0.347255 0.306579 0.290673 0.375072 0.347263 0.290649 0.276492 0.347255 0.323714 0.290673 0.268929 0.347263 0.312089 0.276492 0.25826 0.323714 0.295746 0.268929 0.245819 0.312089 0.2773 0.25826 0.237601 0.295746 0.26561 0.245819 0.223142 0.2773 0.245771 0.237601 0.21692 0.26561 0.237543 0.223142 0.202309 0.245771 0.218742 0.21692 0.197636 0.237543 0.21286 0.202309 0.183826 0.218742 0.195908 0.197636 0.180297 0.21286 0.191651 0.183826 0.167419 0.195908 0.176799 0.180297 0.164753 0.191651 0.173658 0.346966 0.375115 0.429539 0.482631 0.325161 0.346962 0.388516 0.427472 0.375072 0.347263 0.480894 0.42762 0.347255 0.323714 0.427716 0.386368 0.347263 0.312089 0.42762 0.365455 0.323714 0.295746 0.386368 0.339657 0.312089 0.2773 0.365455 0.311941 0.295746 0.26561 0.339657 0.295688 0.2773 0.245771 0.311941 0.269125 0.26561 0.237543 0.295688 0.258283 0.245771 0.218742 0.269125 0.234708 0.237543 0.21286 0.258283 0.227472 0.218742 0.195908 0.234708 0.207174 0.21286 0.191651 0.227472 0.202158 0.195908 0.176799 0.207174 0.184952 0.191651 0.173658 0.202158 0.18136 0.365455 0.311941 0.427327 0.347193 0.339657 0.295688 0.386295 0.323472 0.311941 0.269125 0.347193 0.290821 0.295688 0.258283 0.323472 0.277018 0.269125 0.234708 0.290821 0.248516 0.258283 0.227472 0.277018 0.239973 0.234708 0.207174 0.248516 0.216535 0.227472 0.202158 0.239973 0.210785 0.207174 0.184952 0.216535 0.191477 0.202158 0.18136 0.210785 0.187499 0.427327 0.347193 0.480455 0.375096 0.386295 0.323472 0.427541 0.347137 0.347193 0.290821 0.375096 0.305791 0.323472 0.277018 0.347137 0.290803 0.290821 0.248516 0.305791 0.258787 0.277018 0.239973 0.290803 0.248516 0.248516 0.216535 0.258787 0.22276 0.239973 0.210785 0.248516 0.216539 0.216535 0.191477 0.22276 0.195744 0.210785 0.187499 0.216539 0.191479 0.375096 0.305791 0.38532 0.311943 0.347137 0.290803 0.355788 0.295731 0.305791 0.258787 0.311943 0.262084 0.290803 0.248516 0.295731 0.251576 0.258787 0.22276 0.262084 0.225014 0.248516 0.216539 0.251576 0.218557 0.22276 0.195744 0.225014 0.197218 0.216539 0.191479 0.218557 0.192865 0.38532 0.311943 0.374999 0.305783 0.355788 0.295731 0.347134 0.290799 0.311943 0.262084 0.305783 0.258782 0.295731 0.251576 0.290799 0.248514 0.262084 0.225014 0.258782 0.222758 0.251576 0.218557 0.248514 0.216537 0.225014 0.197218 0.222758 0.195743 0.218557 0.192865 0.216537 0.191478 0.480691 0.374999 0.427542 0.347152 0.427565 0.347134 0.386323 0.323476 0.374999 0.305783 0.347152 0.290807 0.347134 0.290799 0.323476 0.277013 0.305783 0.258782 0.290807 0.248509 0.290799 0.248514 0.277013 0.23997 0.258782 0.222758 0.248509 0.216532 0.248514 0.216537 0.23997 0.210782 0.222758 0.195743 0.216532 0.191475 0.216537 0.191478 0.210782 0.187498 0.427542 0.347152 0.365461 0.311941 0.386323 0.323476 0.339677 0.295693 0.347152 0.290807 0.311941 0.269118 0.323476 0.277013 0.295693 0.258281 0.290807 0.248509 0.269118 0.234703 0.277013 0.23997 0.258281 0.227469 0.248509 0.216532 0.234703 0.207171 0.23997 0.210782 0.227469 0.202156 0.216532 0.191475 0.207171 0.18495 0.210782 0.187498 0.202156 0.181358 0.429544 0.482606 0.346959 0.375105 0.38853 0.427466 0.32516 0.346957 0.480968 0.427629 0.375069 0.347267 0.427729 0.386385 0.347253 0.323719 0.427629 0.365461 0.347267 0.312094 0.386385 0.339677 0.323719 0.29575 0.365461 0.311941 0.312094 0.277301 0.339677 0.295693 0.29575 0.265613 0.311941 0.269118 0.277301 0.245769 0.295693 0.258281 0.265613 0.237543 0.269118 0.234703 0.245769 0.21874 0.258281 0.227469 0.237543 0.212858 0.234703 0.207171 0.21874 0.195905 0.227469 0.202156 0.212858 0.19165 0.207171 0.18495 0.195905 0.176797 0.202156 0.181358 0.19165 0.173656 0.346959 0.375105 0.288455 0.306187 0.32516 0.346957 0.275524 0.289321 0.375105 0.385995 0.306187 0.312443 0.346957 0.355916 0.289321 0.295593 0.385995 0.375069 0.312443 0.306574 0.355916 0.347253 0.295593 0.290646 0.375069 0.347267 0.306574 0.290674 0.347253 0.323719 0.290646 0.276493 0.347267 0.312094 0.290674 0.268931 0.323719 0.29575 0.276493 0.258263 0.312094 0.277301 0.268931 0.24582 0.29575 0.265613 0.258263 0.237603 0.277301 0.245769 0.24582 0.223141 0.265613 0.237543 0.237603 0.21692 0.245769 0.21874 0.223141 0.202307 0.237543 0.212858 0.21692 0.197635 0.21874 0.195905 0.202307 0.183824 0.212858 0.19165 0.197635 0.180295 0.195905 0.176797 0.183824 0.167417 0.19165 0.173656 0.180295 0.164752 0.275529 0.289328 0.325161 0.346962 0.257344 0.268927 0.295561 0.311838 0.289328 0.295599 0.346962 0.355925 0.268927 0.272648 0.311838 0.318841 0.295599 0.290649 0.355925 0.347255 0.272648 0.26895 0.318841 0.311849 0.290649 0.276492 0.347255 0.323714 0.26895 0.258204 0.311849 0.295711 0.276492 0.25826 0.323714 0.295746 0.258204 0.242989 0.295711 0.273317 0.25826 0.237601 0.295746 0.26561 0.242989 0.225507 0.273317 0.248998 0.237601 0.21692 0.26561 0.237543 0.225507 0.207588 0.248998 0.225436 0.21692 0.197636 0.237543 0.21286 0.207588 0.190497 0.225436 0.204016 0.197636 0.180297 0.21286 0.191651 0.190497 0.17483 0.204016 0.185122 0.180297 0.164753 0.191651 0.173658 0.17483 0.16057 0.185122 0.168764 0.325161 0.346962 0.388516 0.427472 0.295561 0.311838 0.34025 0.365139 0.346962 0.355925 0.427472 0.443382 0.311838 0.318841 0.365139 0.376585 0.355925 0.347255 0.443382 0.427716 0.318841 0.311849 0.376585 0.365129 0.347255 0.323714 0.427716 0.386368 0.311849 0.295711 0.365129 0.339642 0.323714 0.295746 0.386368 0.339657 0.295711 0.273317 0.339642 0.306736 0.295746 0.26561 0.339657 0.295688 0.273317 0.248998 0.306736 0.273305 0.26561 0.237543 0.295688 0.258283 0.248998 0.225436 0.273305 0.242957 0.237543 0.21286 0.258283 0.227472 0.225436 0.204016 0.242957 0.216757 0.21286 0.191651 0.227472 0.202158 0.204016 0.185122 0.216757 0.194537 0.191651 0.173658 0.202158 0.18136 0.185122 0.168764 0.194537 0.175806 0.386368 0.339657 0.458481 0.386295 0.339642 0.306736 0.386279 0.339592 0.339657 0.295688 0.386295 0.323472 0.306736 0.273305 0.339592 0.295639 0.295688 0.258283 0.323472 0.277018 0.273305 0.242957 0.295639 0.258253 0.258283 0.227472 0.277018 0.239973 0.242957 0.216757 0.258253 0.227474 0.227472 0.202158 0.239973 0.210785 0.216757 0.194537 0.227474 0.202172 0.202158 0.18136 0.210785 0.187499 0.194537 0.175806 0.202172 0.181378 0.386295 0.323472 0.427541 0.347137 0.339592 0.295639 0.365035 0.311673 0.323472 0.277018 0.347137 0.290803 0.295639 0.258253 0.311673 0.269134 0.277018 0.239973 0.290803 0.248516 0.258253 0.227474 0.269134 0.234705 0.239973 0.210785 0.248516 0.216539 0.227474 0.202172 0.234705 0.207194 0.210785 0.187499 0.216539 0.191479 0.202172 0.181378 0.207194 0.184973 0.427541 0.347137 0.443049 0.355788 0.365035 0.311673 0.376467 0.318621 0.347137 0.290803 0.355788 0.295731 0.311673 0.269134 0.318621 0.272936 0.290803 0.248516 0.295731 0.251576 0.269134 0.234705 0.272936 0.23729 0.248516 0.216539 0.251576 0.218557 0.234705 0.207194 0.23729 0.20895 0.216539 0.191479 0.218557 0.192865 0.207194 0.184973 0.20895 0.186218 0.443049 0.355788 0.427565 0.347134 0.376467 0.318621 0.36504 0.311675 0.355788 0.295731 0.347134 0.290799 0.318621 0.272936 0.311675 0.269133 0.295731 0.251576 0.290799 0.248514 0.272936 0.23729 0.269133 0.234704 0.251576 0.218557 0.248514 0.216537 0.23729 0.20895 0.234704 0.207193 0.218557 0.192865 0.216537 0.191478 0.20895 0.186218 0.207193 0.184973 0.427565 0.347134 0.386323 0.323476 0.36504 0.311675 0.339602 0.295643 0.347134 0.290799 0.323476 0.277013 0.311675 0.269133 0.295643 0.258253 0.290799 0.248514 0.277013 0.23997 0.269133 0.234704 0.258253 0.227473 0.248514 0.216537 0.23997 0.210782 0.234704 0.207193 0.227473 0.202171 0.216537 0.191478 0.210782 0.187498 0.207193 0.184973 0.202171 0.181377 0.458517 0.386323 0.386385 0.339677 0.386286 0.339602 0.339651 0.306743 0.386323 0.323476 0.339677 0.295693 0.339602 0.295643 0.306743 0.273309 0.323476 0.277013 0.295693 0.258281 0.295643 0.258253 0.273309 0.242958 0.277013 0.23997 0.258281 0.227469 0.258253 0.227473 0.242958 0.216757 0.23997 0.210782 0.227469 0.202156 0.227473 0.202171 0.216757 0.194536 0.210782 0.187498 0.202156 0.181358 0.202171 0.181377 0.194536 0.175805 0.38853 0.427466 0.32516 0.346957 0.34027 0.365156 0.295562 0.311838 0.427466 0.443378 0.346957 0.355916 0.365156 0.37659 0.311838 0.318841 0.443378 0.427729 0.355916 0.347253 0.37659 0.365135 0.318841 0.311851 0.427729 0.386385 0.347253 0.323719 0.365135 0.339651 0.311851 0.295715 0.386385 0.339677 0.323719 0.29575 0.339651 0.306743 0.295715 0.273321 0.339677 0.295693 0.29575 0.265613 0.306743 0.273309 0.273321 0.249 0.295693 0.258281 0.265613 0.237543 0.273309 0.242958 0.249 0.225437 0.258281 0.227469 0.237543 0.212858 0.242958 0.216757 0.225437 0.204016 0.227469 0.202156 0.212858 0.19165 0.216757 0.194536 0.204016 0.185121 0.202156 0.181358 0.19165 0.173656 0.194536 0.175805 0.185121 0.168763 0.32516 0.346957 0.275524 0.289321 0.295562 0.311838 0.257343 0.268926 0.346957 0.355916 0.289321 0.295593 0.311838 0.318841 0.268926 0.272646 0.355916 0.347253 0.295593 0.290646 0.318841 0.311851 0.272646 0.26895 0.347253 0.323719 0.290646 0.276493 0.311851 0.295715 0.26895 0.258207 0.323719 0.29575 0.276493 0.258263 0.295715 0.273321 0.258207 0.242992 0.29575 0.265613 0.258263 0.237603 0.273321 0.249 0.242992 0.225509 0.265613 0.237543 0.237603 0.21692 0.249 0.225437 0.225509 0.207589 0.237543 0.212858 0.21692 0.197635 0.225437 0.204016 0.207589 0.190497 0.212858 0.19165 0.197635 0.180295 0.204016 0.185121 0.190497 0.174829 0.19165 0.173656 0.180295 0.164752 0.185121 0.168763 0.174829 0.160569 0.257344 0.268927 0.295561 0.311838 0.236824 0.245602 0.265376 0.277098 0.268927 0.272648 0.311838 0.318841 0.245602 0.248682 0.277098 0.281428 0.272648 0.26895 0.318841 0.311849 0.248682 0.245727 0.281428 0.277224 0.26895 0.258204 0.311849 0.295711 0.245727 0.23753 0.277224 0.265525 0.258204 0.242989 0.295711 0.273317 0.23753 0.225472 0.265525 0.24897 0.242989 0.225507 0.273317 0.248998 0.225472 0.211238 0.24897 0.230152 0.225507 0.207588 0.248998 0.225436 0.211238 0.196291 0.230152 0.211176 0.207588 0.190497 0.225436 0.204016 0.196291 0.181658 0.211176 0.193271 0.190497 0.17483 0.204016 0.185122 0.181658 0.167928 0.193271 0.176987 0.17483 0.16057 0.185122 0.168764 0.167928 0.155196 0.176987 0.16254 0.295561 0.311838 0.34025 0.365139 0.265376 0.277098 0.295408 0.311709 0.311838 0.318841 0.365139 0.376585 0.277098 0.281428 0.311709 0.318651 0.318841 0.311849 0.376585 0.365129 0.281428 0.277224 0.318651 0.311652 0.311849 0.295711 0.365129 0.339642 0.277224 0.265525 0.311652 0.295621 0.295711 0.273317 0.339642 0.306736 0.265525 0.24897 0.295621 0.273274 0.273317 0.248998 0.306736 0.273305 0.24897 0.230152 0.273274 0.248951 0.248998 0.225436 0.273305 0.242957 0.230152 0.211176 0.248951 0.2254 0.225436 0.204016 0.242957 0.216757 0.211176 0.193271 0.2254 0.204005 0.204016 0.185122 0.216757 0.194537 0.193271 0.176987 0.204005 0.185162 0.185122 0.168764 0.194537 0.175806 0.176987 0.16254 0.185162 0.168807 0.34025 0.365139 0.388594 0.427568 0.295408 0.311709 0.324656 0.347153 0.365139 0.376585 0.427568 0.443248 0.311709 0.318651 0.347153 0.355708 0.376585 0.365129 0.443248 0.427618 0.318651 0.311652 0.355708 0.347033 0.365129 0.339642 0.427618 0.386279 0.311652 0.295621 0.347033 0.323368 0.339642 0.306736 0.386279 0.339592 0.295621 0.273274 0.323368 0.295604 0.306736 0.273305 0.339592 0.295639 0.273274 0.248951 0.295604 0.265508 0.273305 0.242957 0.295639 0.258253 0.248951 0.2254 0.265508 0.23749 0.242957 0.216757 0.258253 0.227474 0.2254 0.204005 0.23749 0.21285 0.216757 0.194537 0.227474 0.202172 0.204005 0.185162 0.21285 0.191711 0.194537 0.175806 0.202172 0.181378 0.185162 0.168807 0.191711 0.173722 0.388594 0.427568 0.428125 0.481263 0.324656 0.347153 0.347403 0.374965 0.427618 0.386279 0.480881 0.42756 0.347033 0.323368 0.374832 0.347012 0.386279 0.339592 0.42756 0.365035 0.323368 0.295604 0.347012 0.311627 0.339592 0.295639 0.365035 0.311673 0.295604 0.265508 0.311627 0.277222 0.295639 0.258253 0.311673 0.269134 0.265508 0.23749 0.277222 0.245722 0.258253 0.227474 0.269134 0.234705 0.23749 0.21285 0.245722 0.218739 0.227474 0.202172 0.234705 0.207194 0.21285 0.191711 0.218739 0.195977 0.202172 0.181378 0.207194 0.184973 0.191711 0.173722 0.195977 0.176873 0.481263 0.503179 0.505027 0.530609 0.374965 0.385701 0.385816 0.397587 0.503179 0.480881 0.530609 0.503009 0.385701 0.374832 0.397587 0.385683 0.42756 0.365035 0.443069 0.376467 0.347012 0.311627 0.355674 0.318574 0.365035 0.311673 0.376467 0.318621 0.311627 0.277222 0.318574 0.281462 0.311673 0.269134 0.318621 0.272936 0.277222 0.245722 0.281462 0.248696 0.269134 0.234705 0.272936 0.23729 0.245722 0.218739 0.248696 0.220804 0.234705 0.207194 0.23729 0.20895 0.218739 0.195977 0.220804 0.197463 0.207194 0.184973 0.20895 0.186218 0.195977 0.176873 0.197463 0.17796 0.444936 0.505027 0.429434 0.482112 0.355731 0.385816 0.346862 0.374916 0.505027 0.530609 0.482112 0.503148 0.385816 0.397587 0.374916 0.385722 0.443069 0.376467 0.427574 0.36504 0.355674 0.318574 0.347011 0.311628 0.376467 0.318621 0.36504 0.311675 0.318574 0.281462 0.311628 0.277223 0.318621 0.272936 0.311675 0.269133 0.281462 0.248696 0.277223 0.245722 0.272936 0.23729 0.269133 0.234704 0.248696 0.220804 0.245722 0.218738 0.23729 0.20895 0.234704 0.207193 0.220804 0.197463 0.218738 0.195977 0.20895 0.186218 0.207193 0.184973 0.197463 0.17796 0.195977 0.176873 0.429434 0.482112 0.388504 0.427519 0.346862 0.374916 0.324624 0.347152 0.480829 0.427574 0.427632 0.386286 0.374782 0.347011 0.347034 0.323368 0.427574 0.36504 0.386286 0.339602 0.347011 0.311628 0.323368 0.295607 0.36504 0.311675 0.339602 0.295643 0.311628 0.277223 0.295607 0.26551 0.311675 0.269133 0.295643 0.258253 0.277223 0.245722 0.26551 0.237491 0.269133 0.234704 0.258253 0.227473 0.245722 0.218738 0.237491 0.21285 0.234704 0.207193 0.227473 0.202171 0.218738 0.195977 0.21285 0.19171 0.207193 0.184973 0.202171 0.181377 0.195977 0.176873 0.19171 0.173722 0.388504 0.427519 0.34027 0.365156 0.324624 0.347152 0.295405 0.311709 0.427519 0.443284 0.365156 0.37659 0.347152 0.355716 0.311709 0.318654 0.443284 0.427632 0.37659 0.365135 0.355716 0.347034 0.318654 0.311654 0.427632 0.386286 0.365135 0.339651 0.347034 0.323368 0.311654 0.295624 0.386286 0.339602 0.339651 0.306743 0.323368 0.295607 0.295624 0.273277 0.339602 0.295643 0.306743 0.273309 0.295607 0.26551 0.273277 0.248953 0.295643 0.258253 0.273309 0.242958 0.26551 0.237491 0.248953 0.225401 0.258253 0.227473 0.242958 0.216757 0.237491 0.21285 0.225401 0.204005 0.227473 0.202171 0.216757 0.194536 0.21285 0.19171 0.204005 0.185161 0.202171 0.181377 0.194536 0.175805 0.19171 0.173722 0.185161 0.168806 0.34027 0.365156 0.295562 0.311838 0.295405 0.311709 0.265377 0.277099 0.365156 0.37659 0.311838 0.318841 0.311709 0.318654 0.277099 0.281429 0.37659 0.365135 0.318841 0.311851 0.318654 0.311654 0.281429 0.277225 0.365135 0.339651 0.311851 0.295715 0.311654 0.295624 0.277225 0.265527 0.339651 0.306743 0.295715 0.273321 0.295624 0.273277 0.265527 0.248973 0.306743 0.273309 0.273321 0.249 0.273277 0.248953 0.248973 0.230154 0.273309 0.242958 0.249 0.225437 0.248953 0.225401 0.230154 0.211177 0.242958 0.216757 0.225437 0.204016 0.225401 0.204005 0.211177 0.193271 0.216757 0.194536 0.204016 0.185121 0.204005 0.185161 0.193271 0.176987 0.194536 0.175805 0.185121 0.168763 0.185161 0.168806 0.176987 0.162539 0.295562 0.311838 0.257343 0.268926 0.265377 0.277099 0.236824 0.245602 0.311838 0.318841 0.268926 0.272646 0.277099 0.281429 0.24