<?xml version="1.0" ?> 
<!-- 
# vtk DataFile Version 3.0
#This file was generated by the deal.II library on 16:49:47 at 2019/11/27
-->
<VTKFile type="UnstructuredGrid" version="0.1" byte_order="LittleEndian">
<UnstructuredGrid>
<Piece NumberOfPoints="31184" NumberOfCells="3898" >
  <Points>
    <DataArray type="Float32" NumberOfComponents="3" format="ascii">
-50 -50 0
-40 -50 0
-50 -40 0
-40 -40 0
-50 -50 10
-40 -50 10
-50 -40 10
-40 -40 10
-40 -50 0
-30 -50 0
-40 -40 0
-30 -40 0
-40 -50 10
-30 -50 10
-40 -40 10
-30 -40 10
-30 -50 0
-20 -50 0
-30 -40 0
-20 -40 0
-30 -50 10
-20 -50 10
-30 -40 10
-20 -40 10
-20 -50 0
-10 -50 0
-20 -40 0
-10 -40 0
-20 -50 10
-10 -50 10
-20 -40 10
-10 -40 10
-10 -50 0
0 -50 0
-10 -40 0
0 -40 0
-10 -50 10
0 -50 10
-10 -40 10
0 -40 10
0 -50 0
10 -50 0
0 -40 0
10 -40 0
0 -50 10
10 -50 10
0 -40 10
10 -40 10
10 -50 0
20 -50 0
10 -40 0
20 -40 0
10 -50 10
20 -50 10
10 -40 10
20 -40 10
20 -50 0
30 -50 0
20 -40 0
30 -40 0
20 -50 10
30 -50 10
20 -40 10
30 -40 10
30 -50 0
40 -50 0
30 -40 0
40 -40 0
30 -50 10
40 -50 10
30 -40 10
40 -40 10
40 -50 0
50 -50 0
40 -40 0
50 -40 0
40 -50 10
50 -50 10
40 -40 10
50 -40 10
-50 -40 0
-40 -40 0
-50 -30 0
-40 -30 0
-50 -40 10
-40 -40 10
-50 -30 10
-40 -30 10
-40 -40 0
-30 -40 0
-40 -30 0
-30 -30 0
-40 -40 10
-30 -40 10
-40 -30 10
-30 -30 10
-30 -40 0
-20 -40 0
-30 -30 0
-20 -30 0
-30 -40 10
-20 -40 10
-30 -30 10
-20 -30 10
-20 -40 0
-10 -40 0
-20 -30 0
-10 -30 0
-20 -40 10
-10 -40 10
-20 -30 10
-10 -30 10
-10 -40 0
0 -40 0
-10 -30 0
0 -30 0
-10 -40 10
0 -40 10
-10 -30 10
0 -30 10
0 -40 0
10 -40 0
0 -30 0
10 -30 0
0 -40 10
10 -40 10
0 -30 10
10 -30 10
10 -40 0
20 -40 0
10 -30 0
20 -30 0
10 -40 10
20 -40 10
10 -30 10
20 -30 10
20 -40 0
30 -40 0
20 -30 0
30 -30 0
20 -40 10
30 -40 10
20 -30 10
30 -30 10
30 -40 0
40 -40 0
30 -30 0
40 -30 0
30 -40 10
40 -40 10
30 -30 10
40 -30 10
40 -40 0
50 -40 0
40 -30 0
50 -30 0
40 -40 10
50 -40 10
40 -30 10
50 -30 10
-30 -30 0
-20 -30 0
-30 -20 0
-20 -20 0
-30 -30 10
-20 -30 10
-30 -20 10
-20 -20 10
10 -30 0
20 -30 0
10 -20 0
20 -20 0
10 -30 10
20 -30 10
10 -20 10
20 -20 10
20 -30 0
30 -30 0
20 -20 0
30 -20 0
20 -30 10
30 -30 10
20 -20 10
30 -20 10
30 -30 0
40 -30 0
30 -20 0
40 -20 0
30 -30 10
40 -30 10
30 -20 10
40 -20 10
40 -30 0
50 -30 0
40 -20 0
50 -20 0
40 -30 10
50 -30 10
40 -20 10
50 -20 10
10 -20 0
20 -20 0
10 -10 0
20 -10 0
10 -20 10
20 -20 10
10 -10 10
20 -10 10
20 -20 0
30 -20 0
20 -10 0
30 -10 0
20 -20 10
30 -20 10
20 -10 10
30 -10 10
30 -20 0
40 -20 0
30 -10 0
40 -10 0
30 -20 10
40 -20 10
30 -10 10
40 -10 10
40 -20 0
50 -20 0
40 -10 0
50 -10 0
40 -20 10
50 -20 10
40 -10 10
50 -10 10
20 -10 0
30 -10 0
20 0 0
30 0 0
20 -10 10
30 -10 10
20 0 10
30 0 10
30 -10 0
40 -10 0
30 0 0
40 0 0
30 -10 10
40 -10 10
30 0 10
40 0 10
40 -10 0
50 -10 0
40 0 0
50 0 0
40 -10 10
50 -10 10
40 0 10
50 0 10
20 0 0
30 0 0
20 10 0
30 10 0
20 0 10
30 0 10
20 10 10
30 10 10
30 0 0
40 0 0
30 10 0
40 10 0
30 0 10
40 0 10
30 10 10
40 10 10
40 0 0
50 0 0
40 10 0
50 10 0
40 0 10
50 0 10
40 10 10
50 10 10
10 10 0
20 10 0
10 20 0
20 20 0
10 10 10
20 10 10
10 20 10
20 20 10
20 10 0
30 10 0
20 20 0
30 20 0
20 10 10
30 10 10
20 20 10
30 20 10
30 10 0
40 10 0
30 20 0
40 20 0
30 10 10
40 10 10
30 20 10
40 20 10
40 10 0
50 10 0
40 20 0
50 20 0
40 10 10
50 10 10
40 20 10
50 20 10
10 20 0
20 20 0
10 30 0
20 30 0
10 20 10
20 20 10
10 30 10
20 30 10
20 20 0
30 20 0
20 30 0
30 30 0
20 20 10
30 20 10
20 30 10
30 30 10
30 20 0
40 20 0
30 30 0
40 30 0
30 20 10
40 20 10
30 30 10
40 30 10
40 20 0
50 20 0
40 30 0
50 30 0
40 20 10
50 20 10
40 30 10
50 30 10
-50 30 0
-40 30 0
-50 40 0
-40 40 0
-50 30 10
-40 30 10
-50 40 10
-40 40 10
-40 30 0
-30 30 0
-40 40 0
-30 40 0
-40 30 10
-30 30 10
-40 40 10
-30 40 10
-30 30 0
-20 30 0
-30 40 0
-20 40 0
-30 30 10
-20 30 10
-30 40 10
-20 40 10
-20 30 0
-10 30 0
-20 40 0
-10 40 0
-20 30 10
-10 30 10
-20 40 10
-10 40 10
-10 30 0
0 30 0
-10 40 0
0 40 0
-10 30 10
0 30 10
-10 40 10
0 40 10
0 30 0
10 30 0
0 40 0
10 40 0
0 30 10
10 30 10
0 40 10
10 40 10
10 30 0
20 30 0
10 40 0
20 40 0
10 30 10
20 30 10
10 40 10
20 40 10
20 30 0
30 30 0
20 40 0
30 40 0
20 30 10
30 30 10
20 40 10
30 40 10
30 30 0
40 30 0
30 40 0
40 40 0
30 30 10
40 30 10
30 40 10
40 40 10
40 30 0
50 30 0
40 40 0
50 40 0
40 30 10
50 30 10
40 40 10
50 40 10
-50 40 0
-40 40 0
-50 50 0
-40 50 0
-50 40 10
-40 40 10
-50 50 10
-40 50 10
-40 40 0
-30 40 0
-40 50 0
-30 50 0
-40 40 10
-30 40 10
-40 50 10
-30 50 10
-30 40 0
-20 40 0
-30 50 0
-20 50 0
-30 40 10
-20 40 10
-30 50 10
-20 50 10
-20 40 0
-10 40 0
-20 50 0
-10 50 0
-20 40 10
-10 40 10
-20 50 10
-10 50 10
-10 40 0
0 40 0
-10 50 0
0 50 0
-10 40 10
0 40 10
-10 50 10
0 50 10
0 40 0
10 40 0
0 50 0
10 50 0
0 40 10
10 40 10
0 50 10
10 50 10
10 40 0
20 40 0
10 50 0
20 50 0
10 40 10
20 40 10
10 50 10
20 50 10
20 40 0
30 40 0
20 50 0
30 50 0
20 40 10
30 40 10
20 50 10
30 50 10
30 40 0
40 40 0
30 50 0
40 50 0
30 40 10
40 40 10
30 50 10
40 50 10
40 40 0
50 40 0
40 50 0
50 50 0
40 40 10
50 40 10
40 50 10
50 50 10
-50 -50 10
-40 -50 10
-50 -40 10
-40 -40 10
-50 -50 20
-40 -50 20
-50 -40 20
-40 -40 20
-40 -50 10
-30 -50 10
-40 -40 10
-30 -40 10
-40 -50 20
-30 -50 20
-40 -40 20
-30 -40 20
-30 -50 10
-20 -50 10
-30 -40 10
-20 -40 10
-30 -50 20
-20 -50 20
-30 -40 20
-20 -40 20
-20 -50 10
-10 -50 10
-20 -40 10
-10 -40 10
-20 -50 20
-10 -50 20
-20 -40 20
-10 -40 20
-10 -50 10
0 -50 10
-10 -40 10
0 -40 10
-10 -50 20
0 -50 20
-10 -40 20
0 -40 20
0 -50 10
10 -50 10
0 -40 10
10 -40 10
0 -50 20
10 -50 20
0 -40 20
10 -40 20
10 -50 10
20 -50 10
10 -40 10
20 -40 10
10 -50 20
20 -50 20
10 -40 20
20 -40 20
20 -50 10
30 -50 10
20 -40 10
30 -40 10
20 -50 20
30 -50 20
20 -40 20
30 -40 20
30 -50 10
40 -50 10
30 -40 10
40 -40 10
30 -50 20
40 -50 20
30 -40 20
40 -40 20
40 -50 10
50 -50 10
40 -40 10
50 -40 10
40 -50 20
50 -50 20
40 -40 20
50 -40 20
-50 -40 10
-40 -40 10
-50 -30 10
-40 -30 10
-50 -40 20
-40 -40 20
-50 -30 20
-40 -30 20
-40 -40 10
-30 -40 10
-40 -30 10
-30 -30 10
-40 -40 20
-30 -40 20
-40 -30 20
-30 -30 20
-30 -40 10
-20 -40 10
-30 -30 10
-20 -30 10
-30 -40 20
-20 -40 20
-30 -30 20
-20 -30 20
-20 -40 10
-10 -40 10
-20 -30 10
-10 -30 10
-20 -40 20
-10 -40 20
-20 -30 20
-10 -30 20
0 -40 10
10 -40 10
0 -30 10
10 -30 10
0 -40 20
10 -40 20
0 -30 20
10 -30 20
10 -40 10
20 -40 10
10 -30 10
20 -30 10
10 -40 20
20 -40 20
10 -30 20
20 -30 20
20 -40 10
30 -40 10
20 -30 10
30 -30 10
20 -40 20
30 -40 20
20 -30 20
30 -30 20
30 -40 10
40 -40 10
30 -30 10
40 -30 10
30 -40 20
40 -40 20
30 -30 20
40 -30 20
40 -40 10
50 -40 10
40 -30 10
50 -30 10
40 -40 20
50 -40 20
40 -30 20
50 -30 20
10 -30 10
20 -30 10
10 -20 10
20 -20 10
10 -30 20
20 -30 20
10 -20 20
20 -20 20
20 -30 10
30 -30 10
20 -20 10
30 -20 10
20 -30 20
30 -30 20
20 -20 20
30 -20 20
30 -30 10
40 -30 10
30 -20 10
40 -20 10
30 -30 20
40 -30 20
30 -20 20
40 -20 20
40 -30 10
50 -30 10
40 -20 10
50 -20 10
40 -30 20
50 -30 20
40 -20 20
50 -20 20
10 -20 10
20 -20 10
10 -10 10
20 -10 10
10 -20 20
20 -20 20
10 -10 20
20 -10 20
20 -20 10
30 -20 10
20 -10 10
30 -10 10
20 -20 20
30 -20 20
20 -10 20
30 -10 20
30 -20 10
40 -20 10
30 -10 10
40 -10 10
30 -20 20
40 -20 20
30 -10 20
40 -10 20
40 -20 10
50 -20 10
40 -10 10
50 -10 10
40 -20 20
50 -20 20
40 -10 20
50 -10 20
10 -10 10
20 -10 10
10 0 10
20 0 10
10 -10 20
20 -10 20
10 0 20
20 0 20
20 -10 10
30 -10 10
20 0 10
30 0 10
20 -10 20
30 -10 20
20 0 20
30 0 20
30 -10 10
40 -10 10
30 0 10
40 0 10
30 -10 20
40 -10 20
30 0 20
40 0 20
40 -10 10
50 -10 10
40 0 10
50 0 10
40 -10 20
50 -10 20
40 0 20
50 0 20
10 0 10
20 0 10
10 10 10
20 10 10
10 0 20
20 0 20
10 10 20
20 10 20
20 0 10
30 0 10
20 10 10
30 10 10
20 0 20
30 0 20
20 10 20
30 10 20
30 0 10
40 0 10
30 10 10
40 10 10
30 0 20
40 0 20
30 10 20
40 10 20
40 0 10
50 0 10
40 10 10
50 10 10
40 0 20
50 0 20
40 10 20
50 10 20
10 10 10
20 10 10
10 20 10
20 20 10
10 10 20
20 10 20
10 20 20
20 20 20
20 10 10
30 10 10
20 20 10
30 20 10
20 10 20
30 10 20
20 20 20
30 20 20
30 10 10
40 10 10
30 20 10
40 20 10
30 10 20
40 10 20
30 20 20
40 20 20
40 10 10
50 10 10
40 20 10
50 20 10
40 10 20
50 10 20
40 20 20
50 20 20
10 20 10
20 20 10
10 30 10
20 30 10
10 20 20
20 20 20
10 30 20
20 30 20
20 20 10
30 20 10
20 30 10
30 30 10
20 20 20
30 20 20
20 30 20
30 30 20
30 20 10
40 20 10
30 30 10
40 30 10
30 20 20
40 20 20
30 30 20
40 30 20
40 20 10
50 20 10
40 30 10
50 30 10
40 20 20
50 20 20
40 30 20
50 30 20
-40 30 10
-30 30 10
-40 40 10
-30 40 10
-40 30 20
-30 30 20
-40 40 20
-30 40 20
-30 30 10
-20 30 10
-30 40 10
-20 40 10
-30 30 20
-20 30 20
-30 40 20
-20 40 20
-20 30 10
-10 30 10
-20 40 10
-10 40 10
-20 30 20
-10 30 20
-20 40 20
-10 40 20
-10 30 10
0 30 10
-10 40 10
0 40 10
-10 30 20
0 30 20
-10 40 20
0 40 20
0 30 10
10 30 10
0 40 10
10 40 10
0 30 20
10 30 20
0 40 20
10 40 20
10 30 10
20 30 10
10 40 10
20 40 10
10 30 20
20 30 20
10 40 20
20 40 20
20 30 10
30 30 10
20 40 10
30 40 10
20 30 20
30 30 20
20 40 20
30 40 20
30 30 10
40 30 10
30 40 10
40 40 10
30 30 20
40 30 20
30 40 20
40 40 20
40 30 10
50 30 10
40 40 10
50 40 10
40 30 20
50 30 20
40 40 20
50 40 20
-50 40 10
-40 40 10
-50 50 10
-40 50 10
-50 40 20
-40 40 20
-50 50 20
-40 50 20
-40 40 10
-30 40 10
-40 50 10
-30 50 10
-40 40 20
-30 40 20
-40 50 20
-30 50 20
-30 40 10
-20 40 10
-30 50 10
-20 50 10
-30 40 20
-20 40 20
-30 50 20
-20 50 20
-20 40 10
-10 40 10
-20 50 10
-10 50 10
-20 40 20
-10 40 20
-20 50 20
-10 50 20
-10 40 10
0 40 10
-10 50 10
0 50 10
-10 40 20
0 40 20
-10 50 20
0 50 20
0 40 10
10 40 10
0 50 10
10 50 10
0 40 20
10 40 20
0 50 20
10 50 20
10 40 10
20 40 10
10 50 10
20 50 10
10 40 20
20 40 20
10 50 20
20 50 20
20 40 10
30 40 10
20 50 10
30 50 10
20 40 20
30 40 20
20 50 20
30 50 20
30 40 10
40 40 10
30 50 10
40 50 10
30 40 20
40 40 20
30 50 20
40 50 20
40 40 10
50 40 10
40 50 10
50 50 10
40 40 20
50 40 20
40 50 20
50 50 20
-50 -50 20
-40 -50 20
-50 -40 20
-40 -40 20
-50 -50 30
-40 -50 30
-50 -40 30
-40 -40 30
-40 -50 20
-30 -50 20
-40 -40 20
-30 -40 20
-40 -50 30
-30 -50 30
-40 -40 30
-30 -40 30
-30 -50 20
-20 -50 20
-30 -40 20
-20 -40 20
-30 -50 30
-20 -50 30
[...]
  <PointData Scalars="scalars">
    <DataArray type="Float32" Name="u" format="ascii">
0.282175 0.304711 0.336884 0.37247 0.277874 0.299117 0.329632 0.362298 0.304711 0.316995 0.37247 0.39462 0.299117 0.310743 0.362298 0.38267 0.316995 0.317017 0.39462 0.394574 0.310743 0.310691 0.38267 0.382364 0.317017 0.304994 0.394574 0.372583 0.310691 0.299213 0.382364 0.361458 0.304994 0.284175 0.372583 0.3381 0.299213 0.279748 0.361458 0.329793 0.284175 0.260983 0.3381 0.299752 0.279748 0.257603 0.329793 0.294511 0.260983 0.236914 0.299752 0.264576 0.257603 0.234367 0.294511 0.26106 0.236914 0.214338 0.264576 0.234166 0.234367 0.212452 0.26106 0.231708 0.214338 0.194137 0.234166 0.208518 0.212452 0.19273 0.231708 0.206779 0.194137 0.176152 0.208518 0.187181 0.19273 0.175106 0.206779 0.185922 0.336884 0.37247 0.410479 0.4776 0.329632 0.362298 0.398071 0.455972 0.37247 0.39462 0.4776 0.523449 0.362298 0.38267 0.455972 0.495213 0.39462 0.394574 0.523449 0.523046 0.38267 0.382364 0.495213 0.492438 0.394574 0.372583 0.523046 0.478138 0.382364 0.361458 0.492438 0.454006 0.372583 0.3381 0.478138 0.409353 0.361458 0.329793 0.454006 0.395186 0.3381 0.299752 0.409353 0.345318 0.329793 0.294511 0.395186 0.337457 0.299752 0.264576 0.345318 0.294306 0.294511 0.26106 0.337457 0.289475 0.264576 0.234166 0.294306 0.254038 0.26106 0.231708 0.289475 0.2509 0.234166 0.208518 0.254038 0.222224 0.231708 0.206779 0.2509 0.220121 0.208518 0.187181 0.222224 0.196904 0.206779 0.185922 0.220121 0.195442 0.523449 0.523046 0.771158 0.770906 0.495213 0.492438 0.69348 0.693125 0.345318 0.294306 0.397056 0.323231 0.337457 0.289475 0.385336 0.316887 0.294306 0.254038 0.323231 0.271742 0.289475 0.2509 0.316887 0.267863 0.254038 0.222224 0.271742 0.233831 0.2509 0.220121 0.267863 0.231396 0.222224 0.196904 0.233831 0.204812 0.220121 0.195442 0.231396 0.203163 0.397056 0.323231 0.437475 0.344672 0.385336 0.316887 0.422635 0.336271 0.323231 0.271742 0.344672 0.284548 0.316887 0.267863 0.336271 0.280657 0.271742 0.233831 0.284548 0.241812 0.267863 0.231396 0.280657 0.239014 0.233831 0.204812 0.241812 0.21016 0.231396 0.203163 0.239014 0.208323 0.344672 0.284548 0.35718 0.289121 0.336271 0.280657 0.344698 0.284359 0.284548 0.241812 0.289121 0.245736 0.280657 0.239014 0.284359 0.241889 0.241812 0.21016 0.245736 0.21187 0.239014 0.208323 0.241889 0.210157 0.35718 0.289121 0.344678 0.284549 0.344698 0.284359 0.336277 0.280658 0.289121 0.245736 0.284549 0.241812 0.284359 0.241889 0.280658 0.239013 0.245736 0.21187 0.241812 0.210159 0.241889 0.210157 0.239013 0.208323 0.437504 0.344678 0.397089 0.323238 0.422656 0.336277 0.385371 0.316891 0.344678 0.284549 0.323238 0.271742 0.336277 0.280658 0.316891 0.267863 0.284549 0.241812 0.271742 0.233829 0.280658 0.239013 0.267863 0.231394 0.241812 0.210159 0.233829 0.204811 0.239013 0.208323 0.231394 0.203161 0.397089 0.323238 0.345325 0.2943 0.385371 0.316891 0.337425 0.289474 0.323238 0.271742 0.2943 0.254035 0.316891 0.267863 0.289474 0.250896 0.271742 0.233829 0.254035 0.222221 0.267863 0.231394 0.250896 0.220117 0.233829 0.204811 0.222221 0.196902 0.231394 0.203161 0.220117 0.19544 0.411163 0.478246 0.337104 0.372423 0.396008 0.454164 0.330167 0.361383 0.478246 0.522867 0.372423 0.394588 0.454164 0.495195 0.361383 0.38264 0.522867 0.522241 0.394588 0.394476 0.495195 0.492182 0.38264 0.38241 0.522241 0.477109 0.394476 0.372598 0.492182 0.456229 0.38241 0.362342 0.477109 0.409285 0.372598 0.338159 0.456229 0.39536 0.362342 0.329347 0.409285 0.345325 0.338159 0.299695 0.39536 0.337425 0.329347 0.294526 0.345325 0.2943 0.299695 0.264568 0.337425 0.289474 0.294526 0.261042 0.2943 0.254035 0.264568 0.234158 0.289474 0.250896 0.261042 0.231702 0.254035 0.222221 0.234158 0.208514 0.250896 0.220117 0.231702 0.206774 0.222221 0.196902 0.208514 0.187177 0.220117 0.19544 0.206774 0.185918 0.337104 0.372423 0.282113 0.304614 0.330167 0.361383 0.277743 0.29889 0.372423 0.394588 0.304614 0.316973 0.361383 0.38264 0.29889 0.310699 0.394588 0.394476 0.316973 0.317022 0.38264 0.38241 0.310699 0.310761 0.394476 0.372598 0.317022 0.305075 0.38241 0.362342 0.310761 0.299468 0.372598 0.338159 0.305075 0.284125 0.362342 0.329347 0.299468 0.280074 0.338159 0.299695 0.284125 0.260975 0.329347 0.294526 0.280074 0.257531 0.299695 0.264568 0.260975 0.236893 0.294526 0.261042 0.257531 0.234358 0.264568 0.234158 0.236893 0.214331 0.261042 0.231702 0.234358 0.212443 0.234158 0.208514 0.214331 0.194132 0.231702 0.206774 0.212443 0.192725 0.208514 0.187177 0.194132 0.176148 0.206774 0.185918 0.192725 0.175102 0.277874 0.299117 0.329632 0.362298 0.266333 0.283766 0.310441 0.335544 0.299117 0.310743 0.362298 0.38267 0.283766 0.294188 0.335544 0.353332 0.310743 0.310691 0.38267 0.382364 0.294188 0.294149 0.353332 0.353226 0.310691 0.299213 0.382364 0.361458 0.294149 0.283524 0.353226 0.336346 0.299213 0.279748 0.361458 0.329793 0.283524 0.267807 0.336346 0.311012 0.279748 0.257603 0.329793 0.294511 0.267807 0.248179 0.311012 0.28066 0.257603 0.234367 0.294511 0.26106 0.248179 0.227199 0.28066 0.251257 0.234367 0.212452 0.26106 0.231708 0.227199 0.207065 0.251257 0.224767 0.212452 0.19273 0.231708 0.206779 0.207065 0.188682 0.224767 0.201802 0.19273 0.175106 0.206779 0.185922 0.188682 0.17207 0.201802 0.182287 0.329632 0.362298 0.398071 0.455972 0.310441 0.335544 0.364004 0.409122 0.362298 0.38267 0.455972 0.495213 0.335544 0.353332 0.409122 0.438049 0.38267 0.382364 0.495213 0.492438 0.353332 0.353226 0.438049 0.436494 0.382364 0.361458 0.492438 0.454006 0.353226 0.336346 0.436494 0.409047 0.329793 0.294511 0.395186 0.337457 0.311012 0.28066 0.362898 0.317101 0.294511 0.26106 0.337457 0.289475 0.28066 0.251257 0.317101 0.276201 0.26106 0.231708 0.289475 0.2509 0.251257 0.224767 0.276201 0.242136 0.231708 0.206779 0.2509 0.220121 0.224767 0.201802 0.242136 0.214151 0.206779 0.185922 0.220121 0.195442 0.201802 0.182287 0.214151 0.191234 0.337457 0.289475 0.385336 0.316887 0.317101 0.276201 0.353529 0.299166 0.289475 0.2509 0.316887 0.267863 0.276201 0.242136 0.299166 0.257305 0.2509 0.220121 0.267863 0.231396 0.242136 0.214151 0.257305 0.224451 0.220121 0.195442 0.231396 0.203163 0.214151 0.191234 0.224451 0.198456 0.385336 0.316887 0.422635 0.336271 0.353529 0.299166 0.385409 0.316345 0.316887 0.267863 0.336271 0.280657 0.299166 0.257305 0.316345 0.26789 0.267863 0.231396 0.280657 0.239014 0.257305 0.224451 0.26789 0.231463 0.231396 0.203163 0.239014 0.208323 0.224451 0.198456 0.231463 0.203173 0.422635 0.336271 0.437544 0.344698 0.385409 0.316345 0.397288 0.323068 0.336271 0.280657 0.344698 0.284359 0.316345 0.26789 0.323068 0.272722 0.280657 0.239014 0.284359 0.241889 0.26789 0.231463 0.272722 0.233836 0.239014 0.208323 0.241889 0.210157 0.231463 0.203173 0.233836 0.20485 0.437544 0.344698 0.422656 0.336277 0.397288 0.323068 0.385423 0.316348 0.344698 0.284359 0.336277 0.280658 0.323068 0.272722 0.316348 0.26789 0.284359 0.241889 0.280658 0.239013 0.272722 0.233836 0.26789 0.231462 0.241889 0.210157 0.239013 0.208323 0.233836 0.20485 0.231462 0.203172 0.422656 0.336277 0.385371 0.316891 0.385423 0.316348 0.353541 0.299166 0.336277 0.280658 0.316891 0.267863 0.316348 0.26789 0.299166 0.257304 0.280658 0.239013 0.267863 0.231394 0.26789 0.231462 0.257304 0.224449 0.239013 0.208323 0.231394 0.203161 0.231462 0.203172 0.224449 0.198454 0.385371 0.316891 0.337425 0.289474 0.353541 0.299166 0.317081 0.276196 0.316891 0.267863 0.289474 0.250896 0.299166 0.257304 0.276196 0.242132 0.267863 0.231394 0.250896 0.220117 0.257304 0.224449 0.242132 0.214148 0.231394 0.203161 0.220117 0.19544 0.224449 0.198454 0.214148 0.191231 0.454164 0.495195 0.361383 0.38264 0.408764 0.439448 0.33635 0.353551 0.495195 0.492182 0.38264 0.38241 0.439448 0.437481 0.353551 0.353269 0.492182 0.456229 0.38241 0.362342 0.437481 0.409018 0.353269 0.335578 0.456229 0.39536 0.362342 0.329347 0.409018 0.362995 0.335578 0.310827 0.39536 0.337425 0.329347 0.294526 0.362995 0.317081 0.310827 0.280647 0.337425 0.289474 0.294526 0.261042 0.317081 0.276196 0.280647 0.251245 0.289474 0.250896 0.261042 0.231702 0.276196 0.242132 0.251245 0.22476 0.250896 0.220117 0.231702 0.206774 0.242132 0.214148 0.22476 0.201798 0.220117 0.19544 0.206774 0.185918 0.214148 0.191231 0.201798 0.182284 0.330167 0.361383 0.277743 0.29889 0.311443 0.33635 0.265963 0.283406 0.361383 0.38264 0.29889 0.310699 0.33635 0.353551 0.283406 0.294193 0.38264 0.38241 0.310699 0.310761 0.353551 0.353269 0.294193 0.294237 0.38241 0.362342 0.310761 0.299468 0.353269 0.335578 0.294237 0.284007 0.362342 0.329347 0.299468 0.280074 0.335578 0.310827 0.284007 0.267953 0.329347 0.294526 0.280074 0.257531 0.310827 0.280647 0.267953 0.248139 0.294526 0.261042 0.257531 0.234358 0.280647 0.251245 0.248139 0.227188 0.261042 0.231702 0.234358 0.212443 0.251245 0.22476 0.227188 0.207058 0.231702 0.206774 0.212443 0.192725 0.22476 0.201798 0.207058 0.188677 0.206774 0.185918 0.192725 0.175102 0.201798 0.182284 0.188677 0.172066 0.266333 0.283766 0.310441 0.335544 0.2499 0.264062 0.284889 0.304902 0.283766 0.294188 0.335544 0.353332 0.264062 0.271702 0.304902 0.316655 0.294188 0.294149 0.353332 0.353226 0.271702 0.271742 0.316655 0.316634 0.294149 0.283524 0.353226 0.336346 0.271742 0.264347 0.316634 0.304982 0.283524 0.267807 0.336346 0.311012 0.264347 0.251141 0.304982 0.2851 0.267807 0.248179 0.311012 0.28066 0.251141 0.234502 0.2851 0.26131 0.248179 0.227199 0.28066 0.251257 0.234502 0.216552 0.26131 0.237058 0.227199 0.207065 0.251257 0.224767 0.216552 0.198901 0.237058 0.214437 0.207065 0.188682 0.224767 0.201802 0.198901 0.182448 0.214437 0.19423 0.188682 0.17207 0.201802 0.182287 0.182448 0.167328 0.19423 0.176659 0.310441 0.335544 0.364004 0.409122 0.284889 0.304902 0.324456 0.354032 0.335544 0.353332 0.409122 0.438049 0.304902 0.316655 0.354032 0.372898 0.353332 0.353226 0.438049 0.436494 0.316655 0.316634 0.372898 0.37313 0.353226 0.336346 0.436494 0.409047 0.316634 0.304982 0.37313 0.353759 0.336346 0.311012 0.409047 0.362898 0.304982 0.2851 0.353759 0.323787 0.311012 0.28066 0.362898 0.317101 0.2851 0.26131 0.323787 0.289888 0.28066 0.251257 0.317101 0.276201 0.26131 0.237058 0.289888 0.257735 0.251257 0.224767 0.276201 0.242136 0.237058 0.214437 0.257735 0.229359 0.224767 0.201802 0.242136 0.214151 0.214437 0.19423 0.229359 0.20517 0.201802 0.182287 0.214151 0.191234 0.19423 0.176659 0.20517 0.184772 0.438049 0.436494 0.549675 0.550161 0.372898 0.37313 0.437665 0.436095 0.362898 0.317101 0.420897 0.353529 0.323787 0.289888 0.362804 0.31707 0.317101 0.276201 0.353529 0.299166 0.289888 0.257735 0.31707 0.276168 0.276201 0.242136 0.299166 0.257305 0.257735 0.229359 0.276168 0.242113 0.242136 0.214151 0.257305 0.224451 0.229359 0.20517 0.242113 0.214168 0.214151 0.191234 0.224451 0.198456 0.20517 0.184772 0.214168 0.191259 0.353529 0.299166 0.385409 0.316345 0.31707 0.276168 0.337507 0.289337 0.299166 0.257305 0.316345 0.26789 0.276168 0.242113 0.289337 0.250874 0.257305 0.224451 0.26789 0.231463 0.242113 0.214168 0.250874 0.220174 0.224451 0.198456 0.231463 0.203173 0.214168 0.191259 0.220174 0.195481 0.385409 0.316345 0.397288 0.323068 0.337507 0.289337 0.345373 0.293986 0.316345 0.26789 0.323068 0.272722 0.289337 0.250874 0.293986 0.254088 0.26789 0.231463 0.272722 0.233836 0.250874 0.220174 0.254088 0.222315 0.231463 0.203173 0.233836 0.20485 0.220174 0.195481 0.222315 0.196941 0.397288 0.323068 0.385423 0.316348 0.345373 0.293986 0.337491 0.289337 0.323068 0.272722 0.316348 0.26789 0.293986 0.254088 0.289337 0.250873 0.272722 0.233836 0.26789 0.231462 0.254088 0.222315 0.250873 0.220174 0.233836 0.20485 0.231462 0.203172 0.222315 0.196941 0.220174 0.19548 0.385423 0.316348 0.353541 0.299166 0.337491 0.289337 0.317073 0.276165 0.316348 0.26789 0.299166 0.257304 0.289337 0.250873 0.276165 0.242111 0.26789 0.231462 0.257304 0.224449 0.250873 0.220174 0.242111 0.214166 0.231462 0.203172 0.224449 0.198454 0.220174 0.19548 0.214166 0.191257 0.420905 0.353541 0.362995 0.317081 0.362734 0.317073 0.323761 0.289878 0.353541 0.299166 0.317081 0.276196 0.317073 0.276165 0.289878 0.257729 0.299166 0.257304 0.276196 0.242132 0.276165 0.242111 0.257729 0.229354 0.257304 0.224449 0.242132 0.214148 0.242111 0.214166 0.229354 0.205167 0.224449 0.198454 0.214148 0.191231 0.214166 0.191257 0.205167 0.184769 0.363412 0.408764 0.311443 0.33635 0.324549 0.35402 0.284904 0.304935 0.408764 0.439448 0.33635 0.353551 0.35402 0.372789 0.304935 0.316745 0.439448 0.437481 0.353551 0.353269 0.372789 0.373089 0.316745 0.316641 0.437481 0.409018 0.353269 0.335578 0.373089 0.353666 0.316641 0.305041 0.409018 0.362995 0.335578 0.310827 0.353666 0.323761 0.305041 0.285065 0.362995 0.317081 0.310827 0.280647 0.323761 0.289878 0.285065 0.261293 0.317081 0.276196 0.280647 0.251245 0.289878 0.257729 0.261293 0.237049 0.276196 0.242132 0.251245 0.22476 0.257729 0.229354 0.237049 0.214431 0.242132 0.214148 0.22476 0.201798 0.229354 0.205167 0.214431 0.194226 0.214148 0.191231 0.201798 0.182284 0.205167 0.184769 0.194226 0.176656 0.311443 0.33635 0.265963 0.283406 0.284904 0.304935 0.250091 0.264208 0.33635 0.353551 0.283406 0.294193 0.304935 0.316745 0.264208 0.271728 0.353551 0.353269 0.294193 0.294237 0.316745 0.316641 0.271728 0.271776 0.353269 0.335578 0.294237 0.284007 0.316641 0.305041 0.271776 0.264267 0.335578 0.310827 0.284007 0.267953 0.305041 0.285065 0.264267 0.251099 0.310827 0.280647 0.267953 0.248139 0.285065 0.261293 0.251099 0.234489 0.280647 0.251245 0.248139 0.227188 0.261293 0.237049 0.234489 0.216542 0.251245 0.22476 0.227188 0.207058 0.237049 0.214431 0.216542 0.198895 0.22476 0.201798 0.207058 0.188677 0.214431 0.194226 0.198895 0.182444 0.201798 0.182284 0.188677 0.172066 0.194226 0.176656 0.182444 0.167324 0.2499 0.264062 0.284889 0.304902 0.231136 0.242083 0.257603 0.272086 0.264062 0.271702 0.304902 0.316655 0.242083 0.247878 0.272086 0.280375 0.271702 0.271742 0.316655 0.316634 0.247878 0.247922 0.280375 0.280413 0.271742 0.264347 0.316634 0.304982 0.247922 0.242257 0.280413 0.272225 0.264347 0.251141 0.304982 0.2851 0.242257 0.23194 0.272225 0.257765 0.251141 0.234502 0.2851 0.26131 0.23194 0.218583 0.257765 0.239756 0.234502 0.216552 0.26131 0.237058 0.218583 0.203814 0.239756 0.220632 0.216552 0.198901 0.237058 0.214437 0.203814 0.1889 0.220632 0.202056 0.198901 0.182448 0.214437 0.19423 0.1889 0.174645 0.202056 0.184897 0.182448 0.167328 0.19423 0.176659 0.174645 0.161275 0.184897 0.169561 0.284889 0.304902 0.324456 0.354032 0.257603 0.272086 0.285045 0.30496 0.304902 0.316655 0.354032 0.372898 0.272086 0.280375 0.30496 0.316515 0.316655 0.316634 0.372898 0.37313 0.280375 0.280413 0.316515 0.316445 0.316634 0.304982 0.37313 0.353759 0.280413 0.272225 0.316445 0.304887 0.304982 0.2851 0.353759 0.323787 0.272225 0.257765 0.304887 0.285061 0.2851 0.26131 0.323787 0.289888 0.257765 0.239756 0.285061 0.261252 0.26131 0.237058 0.289888 0.257735 0.239756 0.220632 0.261252 0.237009 0.237058 0.214437 0.257735 0.229359 0.220632 0.202056 0.237009 0.214412 0.214437 0.19423 0.229359 0.20517 0.202056 0.184897 0.214412 0.194267 0.19423 0.176659 0.20517 0.184772 0.184897 0.169561 0.194267 0.176702 0.324456 0.354032 0.363522 0.408744 0.285045 0.30496 0.311481 0.336251 0.354032 0.372898 0.408744 0.437665 0.30496 0.316515 0.336251 0.353317 0.372898 0.37313 0.437665 0.436095 0.316515 0.316445 0.353317 0.353081 0.37313 0.353759 0.436095 0.40878 0.316445 0.304887 0.353081 0.33602 0.353759 0.323787 0.40878 0.362804 0.304887 0.285061 0.33602 0.310854 0.323787 0.289888 0.362804 0.31707 0.285061 0.261252 0.310854 0.280586 0.289888 0.257735 0.31707 0.276168 0.261252 0.237009 0.280586 0.251182 0.257735 0.229359 0.276168 0.242113 0.237009 0.214412 0.251182 0.224736 0.229359 0.20517 0.242113 0.214168 0.214412 0.194267 0.224736 0.201859 0.20517 0.184772 0.214168 0.191259 0.194267 0.176702 0.201859 0.182355 0.408744 0.437665 0.455406 0.497893 0.336251 0.353317 0.361151 0.38274 0.437665 0.436095 0.497893 0.49594 0.353317 0.353081 0.38274 0.382487 0.436095 0.40878 0.49594 0.453183 0.353081 0.33602 0.382487 0.36104 0.362804 0.31707 0.395271 0.337507 0.310854 0.280586 0.329524 0.29445 0.31707 0.276168 0.337507 0.289337 0.280586 0.251182 0.29445 0.260972 0.276168 0.242113 0.289337 0.250874 0.251182 0.224736 0.260972 0.231673 0.242113 0.214168 0.250874 0.220174 0.224736 0.201859 0.231673 0.206851 0.214168 0.191259 0.220174 0.195481 0.201859 0.182355 0.206851 0.186005 0.395568 0.455406 0.411425 0.476835 0.330442 0.361151 0.337218 0.372224 0.455406 0.497893 0.476835 0.522892 0.361151 0.38274 0.372224 0.394485 0.497893 0.49594 0.522892 0.5221 0.38274 0.382487 0.394485 0.394332 0.49594 0.453183 0.5221 0.471672 0.382487 0.36104 0.394332 0.371753 0.453183 0.395271 0.471672 0.410698 0.36104 0.329524 0.371753 0.33799 0.395271 0.337507 0.410698 0.345373 0.329524 0.29445 0.33799 0.299679 0.337507 0.289337 0.345373 0.293986 0.29445 0.260972 0.299679 0.2645 0.289337 0.250874 0.293986 0.254088 0.260972 0.231673 0.2645 0.234118 0.250874 0.220174 0.254088 0.222315 0.231673 0.206851 0.234118 0.208596 0.220174 0.195481 0.222315 0.196941 0.206851 0.186005 0.208596 0.187271 0.411425 0.476835 0.396107 0.453081 0.337218 0.372224 0.330227 0.361196 0.476835 0.522892 0.453081 0.495213 0.372224 0.394485 0.361196 0.382491 0.522892 0.5221 0.495213 0.492514 0.394485 0.394332 0.382491 0.382213 0.5221 0.471672 0.492514 0.451763 0.394332 0.371753 0.382213 0.361388 0.471672 0.410698 0.451763 0.3954 0.371753 0.33799 0.361388 0.329431 0.410698 0.345373 0.3954 0.337491 0.33799 0.299679 0.329431 0.294454 0.345373 0.293986 0.337491 0.289337 0.299679 0.2645 0.294454 0.260969 0.293986 0.254088 0.289337 0.250873 0.2645 0.234118 0.260969 0.231672 0.254088 0.222315 0.250873 0.220174 0.234118 0.208596 0.231672 0.20685 0.222315 0.196941 0.220174 0.19548 0.208596 0.187271 0.20685 0.186004 0.453081 0.495213 0.408842 0.439399 0.361196 0.382491 0.336196 0.353423 0.495213 0.492514 0.439399 0.43756 0.382491 0.382213 0.353423 0.35317 0.492514 0.451763 0.43756 0.408969 0.382213 0.361388 0.35317 0.335939 0.3954 0.337491 0.362734 0.317073 0.329431 0.294454 0.31085 0.280574 0.337491 0.289337 0.317073 0.276165 0.294454 0.260969 0.280574 0.251179 0.289337 0.250873 0.276165 0.242111 0.260969 0.231672 0.251179 0.224733 0.250873 0.220174 0.242111 0.214166 0.231672 0.20685 0.224733 0.201857 0.220174 0.19548 0.214166 0.191257 0.20685 0.186004 0.201857 0.182354 0.363267 0.408842 0.324549 0.35402 0.311413 0.336196 0.285037 0.304996 0.408842 0.439399 0.35402 0.372789 0.336196 0.353423 0.304996 0.316579 0.439399 0.43756 0.372789 0.373089 0.353423 0.35317 0.316579 0.316488 0.43756 0.408969 0.373089 0.353666 0.35317 0.335939 0.316488 0.304925 0.408969 0.362734 0.353666 0.323761 0.335939 0.31085 0.304925 0.285048 0.362734 0.317073 0.323761 0.289878 0.31085 0.280574 0.285048 0.261242 0.317073 0.276165 0.289878 0.257729 0.280574 0.251179 0.261242 0.237003 0.276165 0.242111 0.257729 0.229354 0.251179 0.224733 0.237003 0.214409 0.242111 0.214166 0.229354 0.205167 0.224733 0.201857 0.214409 0.194264 0.214166 0.191257 0.205167 0.184769 0.201857 0.182354 0.194264 0.1767 0.324549 0.35402 0.284904 0.304935 0.285037 0.304996 0.257645 0.272121 0.35402 0.372789 0.304935 0.316745 0.304996 0.316579 0.272121 0.280389 0.372789 0.373089 0.316745 0.316641 0.316579 0.316488 0.280389 0.280426 0.373089 0.353666 0.316641 0.305041 0.316488 0.304925 0.280426 0.272213 0.353666 0.323761 0.305041 0.285065 0.304925 0.285048 0.272213 0.257759 0.323761 0.289878 0.285065 0.261293 0.285048 0.261242 0.257759 0.239745 0.289878 0.257729 0.261293 0.237049 0.261242 0.237003 0.239745 0.220625 0.257729 0.229354 0.237049 0.214431 0.237003 0.214409 0.220625 0.202052 0.229354 0.205167 0.214431 0.194226 0.214409 0.194264 0.202052 0.184894 0.205167 0.184769 0.194226 0.176656 0.194264 0.1767 0.184894 0.169558 0.284904 0.304935 0.250091 0.264208 0.257645 0.272121 0.231168 0.242117 0.304935 0.316745 0.264208 0.271728 0.272121 0.280389 0.242117 0.247912 0.316745 0.316641 0.271728 0.271776 0.280