<?xml version="1.0" ?> 
<!-- 
# vtk DataFile Version 3.0
#This file was generated by the deal.II library on 16:50:16 at 2019/11/27
-->
<VTKFile type="UnstructuredGrid" version="0.1" byte_order="LittleEndian">
<UnstructuredGrid>
<Piece NumberOfPoints="29112" NumberOfCells="3639" >
  <Points>
    <DataArray type="Float32" NumberOfComponents="3" format="ascii">
-50 -50 0
-40 -50 0
-50 -40 0
-40 -40 0
-50 -50 10
-40 -50 10
-50 -40 10
-40 -40 10
-40 -50 0
-30 -50 0
-40 -40 0
-30 -40 0
-40 -50 10
-30 -50 10
-40 -40 10
-30 -40 10
-30 -50 0
-20 -50 0
-30 -40 0
-20 -40 0
-30 -50 10
-20 -50 10
-30 -40 10
-20 -40 10
-20 -50 0
-10 -50 0
-20 -40 0
-10 -40 0
-20 -50 10
-10 -50 10
-20 -40 10
-10 -40 10
-10 -50 0
0 -50 0
-10 -40 0
0 -40 0
-10 -50 10
0 -50 10
-10 -40 10
0 -40 10
0 -50 0
10 -50 0
0 -40 0
10 -40 0
0 -50 10
10 -50 10
0 -40 10
10 -40 10
10 -50 0
20 -50 0
10 -40 0
20 -40 0
10 -50 10
20 -50 10
10 -40 10
20 -40 10
20 -50 0
30 -50 0
20 -40 0
30 -40 0
20 -50 10
30 -50 10
20 -40 10
30 -40 10
30 -50 0
40 -50 0
30 -40 0
40 -40 0
30 -50 10
40 -50 10
30 -40 10
40 -40 10
40 -50 0
50 -50 0
40 -40 0
50 -40 0
40 -50 10
50 -50 10
40 -40 10
50 -40 10
-50 -40 0
-40 -40 0
-50 -30 0
-40 -30 0
-50 -40 10
-40 -40 10
-50 -30 10
-40 -30 10
-40 -40 0
-30 -40 0
-40 -30 0
-30 -30 0
-40 -40 10
-30 -40 10
-40 -30 10
-30 -30 10
-30 -40 0
-20 -40 0
-30 -30 0
-20 -30 0
-30 -40 10
-20 -40 10
-30 -30 10
-20 -30 10
-20 -40 0
-10 -40 0
-20 -30 0
-10 -30 0
-20 -40 10
-10 -40 10
-20 -30 10
-10 -30 10
-10 -40 0
0 -40 0
-10 -30 0
0 -30 0
-10 -40 10
0 -40 10
-10 -30 10
0 -30 10
0 -40 0
10 -40 0
0 -30 0
10 -30 0
0 -40 10
10 -40 10
0 -30 10
10 -30 10
10 -40 0
20 -40 0
10 -30 0
20 -30 0
10 -40 10
20 -40 10
10 -30 10
20 -30 10
20 -40 0
30 -40 0
20 -30 0
30 -30 0
20 -40 10
30 -40 10
20 -30 10
30 -30 10
30 -40 0
40 -40 0
30 -30 0
40 -30 0
30 -40 10
40 -40 10
30 -30 10
40 -30 10
40 -40 0
50 -40 0
40 -30 0
50 -30 0
40 -40 10
50 -40 10
40 -30 10
50 -30 10
-50 -30 0
-40 -30 0
-50 -20 0
-40 -20 0
-50 -30 10
-40 -30 10
-50 -20 10
-40 -20 10
-40 -30 0
-30 -30 0
-40 -20 0
-30 -20 0
-40 -30 10
-30 -30 10
-40 -20 10
-30 -20 10
-30 -30 0
-20 -30 0
-30 -20 0
-20 -20 0
-30 -30 10
-20 -30 10
-30 -20 10
-20 -20 10
-20 -30 0
-10 -30 0
-20 -20 0
-10 -20 0
-20 -30 10
-10 -30 10
-20 -20 10
-10 -20 10
-10 -30 0
0 -30 0
-10 -20 0
0 -20 0
-10 -30 10
0 -30 10
-10 -20 10
0 -20 10
0 -30 0
10 -30 0
0 -20 0
10 -20 0
0 -30 10
10 -30 10
0 -20 10
10 -20 10
30 -30 0
40 -30 0
30 -20 0
40 -20 0
30 -30 10
40 -30 10
30 -20 10
40 -20 10
-50 -20 0
-40 -20 0
-50 -10 0
-40 -10 0
-50 -20 10
-40 -20 10
-50 -10 10
-40 -10 10
-40 -20 0
-30 -20 0
-40 -10 0
-30 -10 0
-40 -20 10
-30 -20 10
-40 -10 10
-30 -10 10
-30 -20 0
-20 -20 0
-30 -10 0
-20 -10 0
-30 -20 10
-20 -20 10
-30 -10 10
-20 -10 10
-20 -20 0
-10 -20 0
-20 -10 0
-10 -10 0
-20 -20 10
-10 -20 10
-20 -10 10
-10 -10 10
-10 -20 0
0 -20 0
-10 -10 0
0 -10 0
-10 -20 10
0 -20 10
-10 -10 10
0 -10 10
-50 -10 0
-40 -10 0
-50 0 0
-40 0 0
-50 -10 10
-40 -10 10
-50 0 10
-40 0 10
-40 -10 0
-30 -10 0
-40 0 0
-30 0 0
-40 -10 10
-30 -10 10
-40 0 10
-30 0 10
-30 -10 0
-20 -10 0
-30 0 0
-20 0 0
-30 -10 10
-20 -10 10
-30 0 10
-20 0 10
-20 -10 0
-10 -10 0
-20 0 0
-10 0 0
-20 -10 10
-10 -10 10
-20 0 10
-10 0 10
-50 0 0
-40 0 0
-50 10 0
-40 10 0
-50 0 10
-40 0 10
-50 10 10
-40 10 10
-40 0 0
-30 0 0
-40 10 0
-30 10 0
-40 0 10
-30 0 10
-40 10 10
-30 10 10
-30 0 0
-20 0 0
-30 10 0
-20 10 0
-30 0 10
-20 0 10
-30 10 10
-20 10 10
-20 0 0
-10 0 0
-20 10 0
-10 10 0
-20 0 10
-10 0 10
-20 10 10
-10 10 10
-50 10 0
-40 10 0
-50 20 0
-40 20 0
-50 10 10
-40 10 10
-50 20 10
-40 20 10
-40 10 0
-30 10 0
-40 20 0
-30 20 0
-40 10 10
-30 10 10
-40 20 10
-30 20 10
-30 10 0
-20 10 0
-30 20 0
-20 20 0
-30 10 10
-20 10 10
-30 20 10
-20 20 10
-20 10 0
-10 10 0
-20 20 0
-10 20 0
-20 10 10
-10 10 10
-20 20 10
-10 20 10
-10 10 0
0 10 0
-10 20 0
0 20 0
-10 10 10
0 10 10
-10 20 10
0 20 10
-50 20 0
-40 20 0
-50 30 0
-40 30 0
-50 20 10
-40 20 10
-50 30 10
-40 30 10
-40 20 0
-30 20 0
-40 30 0
-30 30 0
-40 20 10
-30 20 10
-40 30 10
-30 30 10
-30 20 0
-20 20 0
-30 30 0
-20 30 0
-30 20 10
-20 20 10
-30 30 10
-20 30 10
-20 20 0
-10 20 0
-20 30 0
-10 30 0
-20 20 10
-10 20 10
-20 30 10
-10 30 10
-10 20 0
0 20 0
-10 30 0
0 30 0
-10 20 10
0 20 10
-10 30 10
0 30 10
0 20 0
10 20 0
0 30 0
10 30 0
0 20 10
10 20 10
0 30 10
10 30 10
-50 30 0
-40 30 0
-50 40 0
-40 40 0
-50 30 10
-40 30 10
-50 40 10
-40 40 10
-40 30 0
-30 30 0
-40 40 0
-30 40 0
-40 30 10
-30 30 10
-40 40 10
-30 40 10
-30 30 0
-20 30 0
-30 40 0
-20 40 0
-30 30 10
-20 30 10
-30 40 10
-20 40 10
-20 30 0
-10 30 0
-20 40 0
-10 40 0
-20 30 10
-10 30 10
-20 40 10
-10 40 10
-10 30 0
0 30 0
-10 40 0
0 40 0
-10 30 10
0 30 10
-10 40 10
0 40 10
0 30 0
10 30 0
0 40 0
10 40 0
0 30 10
10 30 10
0 40 10
10 40 10
10 30 0
20 30 0
10 40 0
20 40 0
10 30 10
20 30 10
10 40 10
20 40 10
20 30 0
30 30 0
20 40 0
30 40 0
20 30 10
30 30 10
20 40 10
30 40 10
30 30 0
40 30 0
30 40 0
40 40 0
30 30 10
40 30 10
30 40 10
40 40 10
40 30 0
50 30 0
40 40 0
50 40 0
40 30 10
50 30 10
40 40 10
50 40 10
-50 40 0
-40 40 0
-50 50 0
-40 50 0
-50 40 10
-40 40 10
-50 50 10
-40 50 10
-40 40 0
-30 40 0
-40 50 0
-30 50 0
-40 40 10
-30 40 10
-40 50 10
-30 50 10
-30 40 0
-20 40 0
-30 50 0
-20 50 0
-30 40 10
-20 40 10
-30 50 10
-20 50 10
-20 40 0
-10 40 0
-20 50 0
-10 50 0
-20 40 10
-10 40 10
-20 50 10
-10 50 10
-10 40 0
0 40 0
-10 50 0
0 50 0
-10 40 10
0 40 10
-10 50 10
0 50 10
0 40 0
10 40 0
0 50 0
10 50 0
0 40 10
10 40 10
0 50 10
10 50 10
10 40 0
20 40 0
10 50 0
20 50 0
10 40 10
20 40 10
10 50 10
20 50 10
20 40 0
30 40 0
20 50 0
30 50 0
20 40 10
30 40 10
20 50 10
30 50 10
30 40 0
40 40 0
30 50 0
40 50 0
30 40 10
40 40 10
30 50 10
40 50 10
40 40 0
50 40 0
40 50 0
50 50 0
40 40 10
50 40 10
40 50 10
50 50 10
-50 -50 10
-40 -50 10
-50 -40 10
-40 -40 10
-50 -50 20
-40 -50 20
-50 -40 20
-40 -40 20
-40 -50 10
-30 -50 10
-40 -40 10
-30 -40 10
-40 -50 20
-30 -50 20
-40 -40 20
-30 -40 20
-30 -50 10
-20 -50 10
-30 -40 10
-20 -40 10
-30 -50 20
-20 -50 20
-30 -40 20
-20 -40 20
-20 -50 10
-10 -50 10
-20 -40 10
-10 -40 10
-20 -50 20
-10 -50 20
-20 -40 20
-10 -40 20
-10 -50 10
0 -50 10
-10 -40 10
0 -40 10
-10 -50 20
0 -50 20
-10 -40 20
0 -40 20
0 -50 10
10 -50 10
0 -40 10
10 -40 10
0 -50 20
10 -50 20
0 -40 20
10 -40 20
10 -50 10
20 -50 10
10 -40 10
20 -40 10
10 -50 20
20 -50 20
10 -40 20
20 -40 20
20 -50 10
30 -50 10
20 -40 10
30 -40 10
20 -50 20
30 -50 20
20 -40 20
30 -40 20
30 -50 10
40 -50 10
30 -40 10
40 -40 10
30 -50 20
40 -50 20
30 -40 20
40 -40 20
40 -50 10
50 -50 10
40 -40 10
50 -40 10
40 -50 20
50 -50 20
40 -40 20
50 -40 20
-50 -40 10
-40 -40 10
-50 -30 10
-40 -30 10
-50 -40 20
-40 -40 20
-50 -30 20
-40 -30 20
-40 -40 10
-30 -40 10
-40 -30 10
-30 -30 10
-40 -40 20
-30 -40 20
-40 -30 20
-30 -30 20
-30 -40 10
-20 -40 10
-30 -30 10
-20 -30 10
-30 -40 20
-20 -40 20
-30 -30 20
-20 -30 20
-20 -40 10
-10 -40 10
-20 -30 10
-10 -30 10
-20 -40 20
-10 -40 20
-20 -30 20
-10 -30 20
-10 -40 10
0 -40 10
-10 -30 10
0 -30 10
-10 -40 20
0 -40 20
-10 -30 20
0 -30 20
0 -40 10
10 -40 10
0 -30 10
10 -30 10
0 -40 20
10 -40 20
0 -30 20
10 -30 20
10 -40 10
20 -40 10
10 -30 10
20 -30 10
10 -40 20
20 -40 20
10 -30 20
20 -30 20
20 -40 10
30 -40 10
20 -30 10
30 -30 10
20 -40 20
30 -40 20
20 -30 20
30 -30 20
30 -40 10
40 -40 10
30 -30 10
40 -30 10
30 -40 20
40 -40 20
30 -30 20
40 -30 20
40 -40 10
50 -40 10
40 -30 10
50 -30 10
40 -40 20
50 -40 20
40 -30 20
50 -30 20
-50 -30 10
-40 -30 10
-50 -20 10
-40 -20 10
-50 -30 20
-40 -30 20
-50 -20 20
-40 -20 20
-40 -30 10
-30 -30 10
-40 -20 10
-30 -20 10
-40 -30 20
-30 -30 20
-40 -20 20
-30 -20 20
-30 -30 10
-20 -30 10
-30 -20 10
-20 -20 10
-30 -30 20
-20 -30 20
-30 -20 20
-20 -20 20
-20 -30 10
-10 -30 10
-20 -20 10
-10 -20 10
-20 -30 20
-10 -30 20
-20 -20 20
-10 -20 20
-10 -30 10
0 -30 10
-10 -20 10
0 -20 10
-10 -30 20
0 -30 20
-10 -20 20
0 -20 20
-50 -20 10
-40 -20 10
-50 -10 10
-40 -10 10
-50 -20 20
-40 -20 20
-50 -10 20
-40 -10 20
-40 -20 10
-30 -20 10
-40 -10 10
-30 -10 10
-40 -20 20
-30 -20 20
-40 -10 20
-30 -10 20
-30 -20 10
-20 -20 10
-30 -10 10
-20 -10 10
-30 -20 20
-20 -20 20
-30 -10 20
-20 -10 20
-20 -20 10
-10 -20 10
-20 -10 10
-10 -10 10
-20 -20 20
-10 -20 20
-20 -10 20
-10 -10 20
-10 -20 10
0 -20 10
-10 -10 10
0 -10 10
-10 -20 20
0 -20 20
-10 -10 20
0 -10 20
-50 -10 10
-40 -10 10
-50 0 10
-40 0 10
-50 -10 20
-40 -10 20
-50 0 20
-40 0 20
-40 -10 10
-30 -10 10
-40 0 10
-30 0 10
-40 -10 20
-30 -10 20
-40 0 20
-30 0 20
-30 -10 10
-20 -10 10
-30 0 10
-20 0 10
-30 -10 20
-20 -10 20
-30 0 20
-20 0 20
-20 -10 10
-10 -10 10
-20 0 10
-10 0 10
-20 -10 20
-10 -10 20
-20 0 20
-10 0 20
-10 -10 10
0 -10 10
-10 0 10
0 0 10
-10 -10 20
0 -10 20
-10 0 20
0 0 20
0 -10 10
10 -10 10
0 0 10
10 0 10
0 -10 20
10 -10 20
0 0 20
10 0 20
-50 0 10
-40 0 10
-50 10 10
-40 10 10
-50 0 20
-40 0 20
-50 10 20
-40 10 20
-40 0 10
-30 0 10
-40 10 10
-30 10 10
-40 0 20
-30 0 20
-40 10 20
-30 10 20
-30 0 10
-20 0 10
-30 10 10
-20 10 10
-30 0 20
-20 0 20
-30 10 20
-20 10 20
-20 0 10
-10 0 10
-20 10 10
-10 10 10
-20 0 20
-10 0 20
-20 10 20
-10 10 20
-10 0 10
0 0 10
-10 10 10
0 10 10
-10 0 20
0 0 20
-10 10 20
0 10 20
-50 10 10
-40 10 10
-50 20 10
-40 20 10
-50 10 20
-40 10 20
-50 20 20
-40 20 20
-40 10 10
-30 10 10
-40 20 10
-30 20 10
-40 10 20
-30 10 20
-40 20 20
-30 20 20
-30 10 10
-20 10 10
-30 20 10
-20 20 10
-30 10 20
-20 10 20
-30 20 20
-20 20 20
-20 10 10
-10 10 10
-20 20 10
-10 20 10
-20 10 20
-10 10 20
-20 20 20
-10 20 20
-10 10 10
0 10 10
-10 20 10
0 20 10
-10 10 20
0 10 20
-10 20 20
0 20 20
-50 20 10
-40 20 10
-50 30 10
-40 30 10
-50 20 20
-40 20 20
-50 30 20
-40 30 20
-40 20 10
-30 20 10
-40 30 10
-30 30 10
-40 20 20
-30 20 20
-40 30 20
-30 30 20
-30 20 10
-20 20 10
-30 30 10
-20 30 10
-30 20 20
-20 20 20
-30 30 20
-20 30 20
-20 20 10
-10 20 10
-20 30 10
-10 30 10
-20 20 20
-10 20 20
-20 30 20
-10 30 20
-10 20 10
0 20 10
-10 30 10
0 30 10
-10 20 20
0 20 20
-10 30 20
0 30 20
-50 30 10
-40 30 10
-50 40 10
-40 40 10
-50 30 20
-40 30 20
-50 40 20
-40 40 20
-40 30 10
-30 30 10
-40 40 10
-30 40 10
-40 30 20
[...]
  <PointData Scalars="scalars">
    <DataArray type="Float32" Name="u" format="ascii">
0.161052 0.176578 0.169346 0.187202 0.160249 0.175515 0.16841 0.185938 0.176578 0.194218 0.187202 0.208613 0.175515 0.192809 0.185938 0.206862 0.194218 0.214391 0.208613 0.234184 0.192809 0.212493 0.206862 0.231743 0.214391 0.236931 0.234184 0.26465 0.212493 0.234402 0.231743 0.261069 0.236931 0.261099 0.26465 0.299608 0.234402 0.257673 0.261069 0.29464 0.261099 0.28446 0.299608 0.337775 0.257673 0.280005 0.29464 0.330513 0.28446 0.305244 0.337775 0.372787 0.280005 0.299622 0.330513 0.362691 0.305244 0.31715 0.372787 0.394815 0.299622 0.310913 0.362691 0.382917 0.31715 0.316858 0.394815 0.39473 0.310913 0.310667 0.382917 0.383079 0.316858 0.302963 0.39473 0.372037 0.310667 0.297596 0.383079 0.362298 0.169346 0.187202 0.176473 0.196956 0.16841 0.185938 0.175409 0.195486 0.187202 0.208613 0.196956 0.222301 0.185938 0.206862 0.195486 0.22018 0.208613 0.234184 0.222301 0.254165 0.206862 0.231743 0.22018 0.250893 0.234184 0.26465 0.254165 0.294075 0.231743 0.261069 0.250893 0.2894 0.26465 0.299608 0.294075 0.345973 0.261069 0.29464 0.2894 0.337333 0.299608 0.337775 0.345973 0.408886 0.29464 0.330513 0.337333 0.396028 0.337775 0.372787 0.408886 0.477759 0.330513 0.362691 0.396028 0.455849 0.372787 0.394815 0.477759 0.523791 0.362691 0.382917 0.455849 0.495683 0.394815 0.39473 0.523791 0.524169 0.382917 0.383079 0.495683 0.498621 0.39473 0.372037 0.524169 0.476382 0.383079 0.362298 0.498621 0.458339 0.176473 0.196956 0.182121 0.204962 0.175409 0.195486 0.180961 0.203266 0.196956 0.222301 0.204962 0.233919 0.195486 0.22018 0.203266 0.231474 0.222301 0.254165 0.233919 0.272296 0.22018 0.250893 0.231474 0.267788 0.254165 0.294075 0.272296 0.323101 0.250893 0.2894 0.267788 0.316403 0.294075 0.345973 0.323101 0.39535 0.2894 0.337333 0.316403 0.383782 0.345973 0.408886 0.39535 0.500852 0.337333 0.396028 0.383782 0.474103 0.523791 0.524169 0.771577 0.77161 0.495683 0.498621 0.693636 0.69183 0.182121 0.204962 0.185807 0.210227 0.180961 0.203266 0.184539 0.208486 0.204962 0.233919 0.210227 0.242704 0.203266 0.231474 0.208486 0.239173 0.233919 0.272296 0.242704 0.28438 0.231474 0.267788 0.239173 0.279829 0.272296 0.323101 0.28438 0.344886 0.267788 0.316403 0.279829 0.33685 0.323101 0.39535 0.344886 0.437893 0.316403 0.383782 0.33685 0.420216 0.185807 0.210227 0.187053 0.212219 0.184539 0.208486 0.18581 0.210235 0.210227 0.242704 0.212219 0.245141 0.208486 0.239173 0.210235 0.242724 0.242704 0.28438 0.245141 0.289046 0.239173 0.279829 0.242724 0.284379 0.28438 0.344886 0.289046 0.357137 0.279829 0.33685 0.284379 0.345256 0.187053 0.212219 0.18581 0.210232 0.18581 0.210235 0.184543 0.208491 0.212219 0.245141 0.210232 0.242717 0.210235 0.242724 0.208491 0.239183 0.245141 0.289046 0.242717 0.284426 0.242724 0.284379 0.239183 0.279854 0.289046 0.357137 0.284426 0.345224 0.284379 0.345256 0.279854 0.336658 0.18581 0.210232 0.182126 0.20497 0.184543 0.208491 0.180966 0.203273 0.210232 0.242717 0.20497 0.233934 0.208491 0.239183 0.203273 0.231486 0.242717 0.284426 0.233934 0.272324 0.239183 0.279854 0.231486 0.267823 0.284426 0.345224 0.272324 0.323163 0.279854 0.336658 0.267823 0.316431 0.345224 0.437077 0.323163 0.395167 0.336658 0.422634 0.316431 0.383238 0.182126 0.20497 0.176479 0.196963 0.180966 0.203273 0.175415 0.195493 0.20497 0.233934 0.196963 0.222312 0.203273 0.231486 0.195493 0.22019 0.233934 0.272324 0.222312 0.254179 0.231486 0.267823 0.22019 0.250906 0.272324 0.323163 0.254179 0.294086 0.267823 0.316431 0.250906 0.289395 0.323163 0.395167 0.294086 0.345936 0.316431 0.383238 0.289395 0.33736 0.395167 0.500794 0.345936 0.408879 0.383238 0.474112 0.33736 0.395994 0.176479 0.196963 0.169352 0.187209 0.175415 0.195493 0.168416 0.185944 0.196963 0.222312 0.187209 0.208621 0.195493 0.22019 0.185944 0.206869 0.222312 0.254179 0.208621 0.23419 0.22019 0.250906 0.206869 0.231747 0.254179 0.294086 0.23419 0.26465 0.250906 0.289395 0.231747 0.261072 0.294086 0.345936 0.26465 0.299607 0.289395 0.33736 0.261072 0.294632 0.345936 0.408879 0.299607 0.337765 0.33736 0.395994 0.294632 0.330507 0.408879 0.477712 0.337765 0.372772 0.395994 0.455827 0.330507 0.362689 0.477712 0.523313 0.372772 0.394786 0.455827 0.495873 0.362689 0.382942 0.523313 0.523757 0.394786 0.394712 0.495873 0.498844 0.382942 0.38311 0.523757 0.47631 0.394712 0.372032 0.498844 0.45826 0.38311 0.362307 0.169352 0.187209 0.161058 0.176584 0.168416 0.185944 0.160254 0.175521 0.187209 0.208621 0.176584 0.194223 0.185944 0.206869 0.175521 0.192814 0.208621 0.23419 0.194223 0.214394 0.206869 0.231747 0.192814 0.212497 0.23419 0.26465 0.214394 0.236932 0.231747 0.261072 0.212497 0.234402 0.26465 0.299607 0.236932 0.261095 0.261072 0.294632 0.234402 0.257671 0.299607 0.337765 0.261095 0.284456 0.294632 0.330507 0.257671 0.280002 0.337765 0.372772 0.284456 0.30524 0.330507 0.362689 0.280002 0.299622 0.372772 0.394786 0.30524 0.317149 0.362689 0.382942 0.299622 0.310921 0.394786 0.394712 0.317149 0.316862 0.382942 0.38311 0.310921 0.310678 0.394712 0.372032 0.316862 0.302968 0.38311 0.362307 0.310678 0.297605 0.160249 0.175515 0.16841 0.185938 0.157907 0.172437 0.16569 0.182289 0.175515 0.192809 0.185938 0.206862 0.172437 0.188751 0.182289 0.201869 0.192809 0.212493 0.206862 0.231743 0.188751 0.207101 0.201869 0.224794 0.212493 0.234402 0.231743 0.261069 0.207101 0.227222 0.224794 0.251267 0.234402 0.257673 0.261069 0.29464 0.227222 0.248203 0.251267 0.280643 0.257673 0.280005 0.29464 0.330513 0.248203 0.268271 0.280643 0.310607 0.280005 0.299622 0.330513 0.362691 0.268271 0.28378 0.310607 0.33729 0.299622 0.310913 0.362691 0.382917 0.28378 0.294318 0.33729 0.35357 0.310913 0.310667 0.382917 0.383079 0.294318 0.294136 0.35357 0.353516 0.310667 0.297596 0.383079 0.362298 0.294136 0.283129 0.353516 0.337008 0.16841 0.185938 0.175409 0.195486 0.16569 0.182289 0.172339 0.191255 0.185938 0.206862 0.195486 0.22018 0.182289 0.201869 0.191255 0.214177 0.206862 0.231743 0.22018 0.250893 0.201869 0.224794 0.214177 0.242095 0.231743 0.261069 0.250893 0.2894 0.224794 0.251267 0.242095 0.276211 0.261069 0.29464 0.2894 0.337333 0.251267 0.280643 0.276211 0.317071 0.29464 0.330513 0.337333 0.396028 0.280643 0.310607 0.317071 0.363091 0.330513 0.362691 0.396028 0.455849 0.310607 0.33729 0.363091 0.410153 0.362691 0.382917 0.455849 0.495683 0.33729 0.35357 0.410153 0.438117 0.382917 0.383079 0.495683 0.498621 0.35357 0.353516 0.438117 0.437821 0.383079 0.362298 0.498621 0.458339 0.353516 0.337008 0.437821 0.411102 0.175409 0.195486 0.180961 0.203266 0.172339 0.191255 0.177585 0.198502 0.195486 0.22018 0.203266 0.231474 0.191255 0.214177 0.198502 0.224497 0.22018 0.250893 0.231474 0.267788 0.214177 0.242095 0.224497 0.25731 0.250893 0.2894 0.267788 0.316403 0.242095 0.276211 0.25731 0.2986 0.2894 0.337333 0.316403 0.383782 0.276211 0.317071 0.2986 0.354445 0.180961 0.203266 0.184539 0.208486 0.177585 0.198502 0.180968 0.203286 0.203266 0.231474 0.208486 0.239173 0.198502 0.224497 0.203286 0.231443 0.231474 0.267788 0.239173 0.279829 0.224497 0.25731 0.231443 0.26851 0.267788 0.316403 0.279829 0.33685 0.25731 0.2986 0.26851 0.316455 0.316403 0.383782 0.33685 0.420216 0.2986 0.354445 0.316455 0.383025 0.184539 0.208486 0.18581 0.210235 0.180968 0.203286 0.182134 0.204975 0.208486 0.239173 0.210235 0.242724 0.203286 0.231443 0.204975 0.23402 0.239173 0.279829 0.242724 0.284379 0.231443 0.26851 0.23402 0.272006 0.279829 0.33685 0.284379 0.345256 0.26851 0.316455 0.272006 0.323075 0.33685 0.420216 0.345256 0.437015 0.316455 0.383025 0.323075 0.395132 0.420216 0.553357 0.437015 0.596477 0.383025 0.475102 0.395132 0.500644 0.18581 0.210235 0.184543 0.208491 0.182134 0.204975 0.180971 0.203289 0.210235 0.242724 0.208491 0.239183 0.204975 0.23402 0.203289 0.23145 0.242724 0.284379 0.239183 0.279854 0.23402 0.272006 0.23145 0.268535 0.284379 0.345256 0.279854 0.336658 0.272006 0.323075 0.268535 0.316518 0.345256 0.437015 0.336658 0.422634 0.323075 0.395132 0.316518 0.383305 0.184543 0.208491 0.180966 0.203273 0.180971 0.203289 0.177589 0.198508 0.208491 0.239183 0.203273 0.231486 0.203289 0.23145 0.198508 0.224508 0.239183 0.279854 0.231486 0.267823 0.23145 0.268535 0.224508 0.257329 0.279854 0.336658 0.267823 0.316431 0.268535 0.316518 0.257329 0.298655 0.336658 0.422634 0.316431 0.383238 0.316518 0.383305 0.298655 0.354359 0.180966 0.203273 0.175415 0.195493 0.177589 0.198508 0.172344 0.191262 0.203273 0.231486 0.195493 0.22019 0.198508 0.224508 0.191262 0.214185 0.231486 0.267823 0.22019 0.250906 0.224508 0.257329 0.214185 0.242106 0.267823 0.316431 0.250906 0.289395 0.257329 0.298655 0.242106 0.276206 0.316431 0.383238 0.289395 0.33736 0.298655 0.354359 0.276206 0.317047 0.175415 0.195493 0.168416 0.185944 0.172344 0.191262 0.165694 0.182294 0.195493 0.22019 0.185944 0.206869 0.191262 0.214185 0.182294 0.201874 0.22019 0.250906 0.206869 0.231747 0.214185 0.242106 0.201874 0.224798 0.250906 0.289395 0.231747 0.261072 0.242106 0.276206 0.224798 0.251267 0.289395 0.33736 0.261072 0.294632 0.276206 0.317047 0.251267 0.280641 0.33736 0.395994 0.294632 0.330507 0.317047 0.363077 0.280641 0.310604 0.395994 0.455827 0.330507 0.362689 0.363077 0.410172 0.310604 0.337293 0.455827 0.495873 0.362689 0.382942 0.410172 0.438107 0.337293 0.353577 0.495873 0.498844 0.382942 0.38311 0.438107 0.437783 0.353577 0.353523 0.498844 0.45826 0.38311 0.362307 0.437783 0.411114 0.353523 0.337017 0.168416 0.185944 0.160254 0.175521 0.165694 0.182294 0.157912 0.172442 0.185944 0.206869 0.175521 0.192814 0.182294 0.201874 0.172442 0.188755 0.206869 0.231747 0.192814 0.212497 0.201874 0.224798 0.188755 0.207104 0.231747 0.261072 0.212497 0.234402 0.224798 0.251267 0.207104 0.227223 0.261072 0.294632 0.234402 0.257671 0.251267 0.280641 0.227223 0.248201 0.294632 0.330507 0.257671 0.280002 0.280641 0.310604 0.248201 0.268269 0.330507 0.362689 0.280002 0.299622 0.310604 0.337293 0.268269 0.283781 0.362689 0.382942 0.299622 0.310921 0.337293 0.353577 0.283781 0.294323 0.382942 0.38311 0.310921 0.310678 0.353577 0.353523 0.294323 0.294143 0.38311 0.362307 0.310678 0.297605 0.353523 0.337017 0.294143 0.283136 0.157907 0.172437 0.16569 0.182289 0.154216 0.16764 0.161427 0.176649 0.172437 0.188751 0.182289 0.201869 0.16764 0.182506 0.176649 0.194285 0.188751 0.207101 0.201869 0.224794 0.182506 0.198934 0.194285 0.214461 0.207101 0.227222 0.224794 0.251267 0.198934 0.216567 0.214461 0.237072 0.227222 0.248203 0.251267 0.280643 0.216567 0.23451 0.237072 0.261303 0.248203 0.268271 0.280643 0.310607 0.23451 0.251163 0.261303 0.285095 0.268271 0.28378 0.310607 0.33729 0.251163 0.264458 0.285095 0.304983 0.28378 0.294318 0.33729 0.35357 0.264458 0.271776 0.304983 0.316775 0.294318 0.294136 0.35357 0.353516 0.271776 0.271602 0.316775 0.316669 0.294136 0.283129 0.353516 0.337008 0.271602 0.26348 0.316669 0.304665 0.16569 0.182289 0.172339 0.191255 0.161427 0.176649 0.167558 0.18477 0.182289 0.201869 0.191255 0.214177 0.176649 0.194285 0.18477 0.205184 0.201869 0.224794 0.214177 0.242095 0.194285 0.214461 0.205184 0.229355 0.224794 0.251267 0.242095 0.276211 0.214461 0.237072 0.229355 0.257726 0.251267 0.280643 0.276211 0.317071 0.237072 0.261303 0.257726 0.289936 0.280643 0.310607 0.317071 0.363091 0.261303 0.285095 0.289936 0.323642 0.310607 0.33729 0.363091 0.410153 0.285095 0.304983 0.323642 0.353969 0.33729 0.35357 0.410153 0.438117 0.304983 0.316775 0.353969 0.372 0.35357 0.353516 0.438117 0.437821 0.316775 0.316669 0.372 0.372064 0.353516 0.337008 0.437821 0.411102 0.316669 0.304665 0.372064 0.35471 0.172339 0.191255 0.177585 0.198502 0.167558 0.18477 0.172361 0.191274 0.191255 0.214177 0.198502 0.224497 0.18477 0.205184 0.191274 0.2142 0.214177 0.242095 0.224497 0.25731 0.205184 0.229355 0.2142 0.242095 0.242095 0.276211 0.25731 0.2986 0.229355 0.257726 0.242095 0.27607 0.276211 0.317071 0.2986 0.354445 0.257726 0.289936 0.27607 0.317074 0.317071 0.363091 0.354445 0.421199 0.289936 0.323642 0.317074 0.363104 0.438117 0.437821 0.550056 0.55039 0.372 0.372064 0.437711 0.437756 0.177585 0.198502 0.180968 0.203286 0.172361 0.191274 0.175441 0.195516 0.198502 0.224497 0.203286 0.231443 0.191274 0.2142 0.195516 0.220225 0.224497 0.25731 0.231443 0.26851 0.2142 0.242095 0.220225 0.2509 0.25731 0.2986 0.26851 0.316455 0.242095 0.27607 0.2509 0.289153 0.2986 0.354445 0.316455 0.383025 0.27607 0.317074 0.289153 0.337464 0.180968 0.203286 0.182134 0.204975 0.175441 0.195516 0.176506 0.196996 0.203286 0.231443 0.204975 0.23402 0.195516 0.220225 0.196996 0.222336 0.231443 0.26851 0.23402 0.272006 0.220225 0.2509 0.222336 0.254085 0.26851 0.316455 0.272006 0.323075 0.2509 0.289153 0.254085 0.293992 0.316455 0.383025 0.323075 0.395132 0.289153 0.337464 0.293992 0.34594 0.383025 0.475102 0.395132 0.500644 0.337464 0.395722 0.34594 0.408999 0.691571 0.691836 0.770362 0.771378 0.497649 0.498681 0.523733 0.524078 0.182134 0.204975 0.180971 0.203289 0.176506 0.196996 0.175443 0.195518 0.204975 0.23402 0.203289 0.23145 0.196996 0.222336 0.195518 0.22023 0.23402 0.272006 0.23145 0.268535 0.222336 0.254085 0.22023 0.25091 0.272006 0.323075 0.268535 0.316518 0.254085 0.293992 0.25091 0.289182 0.323075 0.395132 0.316518 0.383305 0.293992 0.34594 0.289182 0.337416 0.395132 0.500644 0.383305 0.474198 0.34594 0.408999 0.337416 0.395916 0.180971 0.203289 0.177589 0.198508 0.175443 0.195518 0.172364 0.191279 0.203289 0.23145 0.198508 0.224508 0.195518 0.22023 0.191279 0.214206 0.23145 0.268535 0.224508 0.257329 0.22023 0.25091 0.214206 0.242107 0.268535 0.316518 0.257329 0.298655 0.25091 0.289182 0.242107 0.276077 0.316518 0.383305 0.298655 0.354359 0.289182 0.337416 0.276077 0.317079 0.177589 0.198508 0.172344 0.191262 0.172364 0.191279 0.167561 0.184775 0.198508 0.224508 0.191262 0.214185 0.191279 0.214206 0.184775 0.20519 0.224508 0.257329 0.214185 0.242106 0.214206 0.242107 0.20519 0.229361 0.257329 0.298655 0.242106 0.276206 0.242107 0.276077 0.229361 0.257728 0.298655 0.354359 0.276206 0.317047 0.276077 0.317079 0.257728 0.289924 0.354359 0.421157 0.317047 0.363077 0.317079 0.363016 0.289924 0.323652 0.550073 0.550418 0.438107 0.437783 0.438038 0.437724 0.372002 0.372081 0.172344 0.191262 0.165694 0.182294 0.167561 0.184775 0.161431 0.176653 0.191262 0.214185 0.182294 0.201874 0.184775 0.20519 0.176653 0.194289 0.214185 0.242106 0.201874 0.224798 0.20519 0.229361 0.194289 0.214463 0.242106 0.276206 0.224798 0.251267 0.229361 0.257728 0.214463 0.237071 0.276206 0.317047 0.251267 0.280641 0.257728 0.289924 0.237071 0.261301 0.317047 0.363077 0.280641 0.310604 0.289924 0.323652 0.261301 0.285093 0.363077 0.410172 0.310604 0.337293 0.323652 0.353965 0.285093 0.304987 0.410172 0.438107 0.337293 0.353577 0.353965 0.372002 0.304987 0.316781 0.438107 0.437783 0.353577 0.353523 0.372002 0.372081 0.316781 0.316673 0.437783 0.411114 0.353523 0.337017 0.372081 0.354706 0.316673 0.30467 0.165694 0.182294 0.157912 0.172442 0.161431 0.176653 0.154219 0.167644 0.182294 0.201874 0.172442 0.188755 0.176653 0.194289 0.167644 0.18251 0.201874 0.224798 0.188755 0.207104 0.194289 0.214463 0.18251 0.198936 0.224798 0.251267 0.207104 0.227223 0.214463 0.237071 0.198936 0.216567 0.251267 0.280641 0.227223 0.248201 0.237071 0.261301 0.216567 0.23451 0.280641 0.310604 0.248201 0.268269 0.261301 0.285093 0.23451 0.251163 0.310604 0.337293 0.268269 0.283781 0.285093 0.304987 0.251163 0.26446 0.337293 0.353577 0.283781 0.294323 0.304987 0.316781 0.26446 0.271779 0.353577 0.353523 0.294323 0.294143 0.316781 0.316673 0.271779 0.271607 0.353523 0.337017 0.294143 0.283136 0.316673 0.30467 0.271607 0.263485 0.154216 0.16764 0.161427 0.176649 0.149442 0.161534 0.155961 0.169547 0.16764 0.182506 0.176649 0.194285 0.161534 0.174697 0.169547 0.184947 0.182506 0.198934 0.194285 0.214461 0.174697 0.188933 0.184947 0.202084 0.198934 0.216567 0.214461 0.237072 0.188933 0.203835 0.202084 0.220651 0.216567 0.23451 0.237072 0.261303 0.203835 0.2186 0.220651 0.239768 0.23451 0.251163 0.261303 0.285095 0.2186 0.231959 0.239768 0.257783 0.251163 0.264458 0.285095 0.304983 0.231959 0.24228 0.257783 0.272239 0.264458 0.271776 0.304983 0.316775 0.24228 0.247941 0.272239 0.280426 0.271776 0.271602 0.316775 0.316669 0.247941 0.247835 0.280426 0.280325 0.271602 0.26348 0.316669 0.304665 0.247835 0.241636 0.280325 0.272086 0.161427 0.176649 0.167558 0.18477 0.155961 0.169547 0.161472 0.176691 0.176649 0.194285 0.18477 0.205184 0.169547 0.184947 0.176691 0.194281 0.194285 0.214461 0.205184 0.229355 0.184947 0.202084 0.194281 0.214428 0.214461 0.237072 0.229355 0.257726 0.202084 0.220651 0.214428 0.237015 0.237072 0.261303 0.257726 0.289936 0.220651 0.239768 0.237015 0.261246 0.261303 0.285095 0.289936 0.323642 0.239768 0.257783 0.261246 0.285033 0.285095 0.304983 0.323642 0.353969 0.257783 0.272239 0.285033 0.304866 0.304983 0.316775 0.353969 0.372 0.272239 0.280426 0.304866 0.316632 0.316775 0.316669 0.372 0.372064 0.280426 0.280325 0.316632 0.316628 0.316669 0.304665 0.372064 0.35471 0.280325 0.272086 0.316628 0.304587 0.167558 0.18477 0.172361 0.191274 0.161472 0.176691 0.165759 0.182355 0.18477 0.205184 0.191274 0.2142 0.176691 0.194281 0.182355 0.201871 0.205184 0.229355 0.2142 0.242095 0.194281 0.214428 0.201871 0.224741 0.229355 0.257726 0.242095 0.27607 0.214428 0.237015 0.224741 0.251178 0.257726 0.289936 0.27607 0.317074 0.237015 0.261246 0.251178 0.28051 0.289936 0.323642 0.317074 0.363104 0.261246 0.285033 0.28051 0.310557 0.323642 0.353969 0.363104 0.409759 0.285033 0.304866 0.310557 0.336952 0.353969 0.372 0.409759 0.437711 0.304866 0.316632 0.336952 0.353406 0.372 0.372064 0.437711 0.437756 0.316632 0.316628 0.353406 0.35345 0.372064 0.35471 0.437756 0.411054 0.316628 0.304587 0.35345 0.337066 0.172361 0.191274 0.175441 0.195516 0.165759 0.182355 0.168492 0.186018 0.191274 0.2142 0.195516 0.220225 0.182355 0.201871 0.186018 0.206868 0.2142 0.242095 0.220225 0.2509 0.201871 0.224741 0.206868 0.231674 0.242095 0.27607 0.2509 0.289153 0.224741 0.251178 0.231674 0.260979 0.27607 0.317074 0.289153 0.337464 0.251178 0.28051 0.260979 0.294401 0.317074 0.363104 0.337464 0.395722 0.28051 0.310557 0.294401 0.329678 0.363104 0.409759 0.395722 0.457029 0.310557 0.336952 0.329678 0.362538 0.409759 0.437711 0.457029 0.497649 0.336952 0.353406 0.362538 0.382914 0.437711 0.437756 0.497649 0.498681 0.353406 0.35345 0.382914 0.383031 0.437756 0.411054 0.498681 0.458243 0.35345 0.337066 0.383031 0.362337 0.175441 0.195516 0.176506 0.196996 0.168492 0.186018 0.169432 0.187287 0.195516 0.220225 0.196996 0.222336 0.186018 0.206868 0.187287 0.20862 0.220225 0.2509 0.222336 0.254085 0.206868 0.231674 0.20862 0.234129 0.2509 0.289153 0.254085 0.293992 0.231674 0.260979 0.234129 0.264524 0.289153 0.337464 0.293992 0.34594 0.260979 0.294401 0.264524 0.29946 0.337464 0.395722 0.34594 0.408999 0.294401 0.329678 0.29946 0.337297 0.395722 0.457029 0.408999 0.47737 0.329678 0.362538 0.337297 0.372496 0.457029 0.497649 0.47737 0.523733 0.362538 0.382914 0.372496 0.3946 0.497649 0.498681 0.523733 0.524078 0.382914 0.383031 0.3946 0.394632 0.498681 0.458243 0.524078 0.476196 0.383031 0.362337 0.394632 0.372045 0.176506 0.196996 0.175443 0.195518 0.169432 0.187287 0.168493 0.186019 0.196996 0.222336 0.195518 0.22023 0.187287 0.20862 0.186019 0.20687 0.222336 0.254085 0.22023 0.25091 0.20862 0.234129 0.20687 0.231678 0.254085 0.293992 0.25091 0.289182 0.234129 0.264524 0.231678 0.260977 0.293992 0.34594 0.289182 0.337416 0.264524 0.29946 0.260977 0.294404 0.34594 0.408999 0.337416 0.395916 0.29946 0.337297 0.294404 0.329657 0.408999 0.47737 0.395916 0.455767 0.337297 0.372496 0.329657 0.362394 0.47737 0.523733 0.455767 0.495801 0.372496 0.3946 0.362394 0.382732 0.523733 0.524078 0.495801 0.4988 0.3946 0.394632 0.382732 0.383015 0.524078 0.476196 0.4988 0.458156 0.394632 0.372045 0.383015 0.362323 0.175443 0.195518 0.172364 0.191279 0.168493 0.186019 0.165762 0.182358 0.195518 0.22023 0.191279 0.214206 0.186019 0.20687 0.182358 0.201875 0.22023 0.25091 0.21