<?xml version="1.0" ?> 
<!-- 
# vtk DataFile Version 3.0
#This file was generated by the deal.II library on 16:48:06 at 2019/11/27
-->
<VTKFile type="UnstructuredGrid" version="0.1" byte_order="LittleEndian">
<UnstructuredGrid>
<Piece NumberOfPoints="73352" NumberOfCells="9169" >
  <Points>
    <DataArray type="Float32" NumberOfComponents="3" format="ascii">
-50 -50 0
-40 -50 0
-50 -40 0
-40 -40 0
-50 -50 10
-40 -50 10
-50 -40 10
-40 -40 10
-40 -50 0
-30 -50 0
-40 -40 0
-30 -40 0
-40 -50 10
-30 -50 10
-40 -40 10
-30 -40 10
-30 -50 0
-20 -50 0
-30 -40 0
-20 -40 0
-30 -50 10
-20 -50 10
-30 -40 10
-20 -40 10
-20 -50 0
-10 -50 0
-20 -40 0
-10 -40 0
-20 -50 10
-10 -50 10
-20 -40 10
-10 -40 10
-10 -50 0
0 -50 0
-10 -40 0
0 -40 0
-10 -50 10
0 -50 10
-10 -40 10
0 -40 10
0 -50 0
10 -50 0
0 -40 0
10 -40 0
0 -50 10
10 -50 10
0 -40 10
10 -40 10
10 -50 0
20 -50 0
10 -40 0
20 -40 0
10 -50 10
20 -50 10
10 -40 10
20 -40 10
20 -50 0
30 -50 0
20 -40 0
30 -40 0
20 -50 10
30 -50 10
20 -40 10
30 -40 10
30 -50 0
40 -50 0
30 -40 0
40 -40 0
30 -50 10
40 -50 10
30 -40 10
40 -40 10
40 -50 0
50 -50 0
40 -40 0
50 -40 0
40 -50 10
50 -50 10
40 -40 10
50 -40 10
-50 -40 0
-40 -40 0
-50 -30 0
-40 -30 0
-50 -40 10
-40 -40 10
-50 -30 10
-40 -30 10
-40 -40 0
-30 -40 0
-40 -30 0
-30 -30 0
-40 -40 10
-30 -40 10
-40 -30 10
-30 -30 10
-30 -40 0
-20 -40 0
-30 -30 0
-20 -30 0
-30 -40 10
-20 -40 10
-30 -30 10
-20 -30 10
-20 -40 0
-10 -40 0
-20 -30 0
-10 -30 0
-20 -40 10
-10 -40 10
-20 -30 10
-10 -30 10
-10 -40 0
0 -40 0
-10 -30 0
0 -30 0
-10 -40 10
0 -40 10
-10 -30 10
0 -30 10
0 -40 0
10 -40 0
0 -30 0
10 -30 0
0 -40 10
10 -40 10
0 -30 10
10 -30 10
10 -40 0
20 -40 0
10 -30 0
20 -30 0
10 -40 10
20 -40 10
10 -30 10
20 -30 10
20 -40 0
30 -40 0
20 -30 0
30 -30 0
20 -40 10
30 -40 10
20 -30 10
30 -30 10
30 -40 0
40 -40 0
30 -30 0
40 -30 0
30 -40 10
40 -40 10
30 -30 10
40 -30 10
40 -40 0
50 -40 0
40 -30 0
50 -30 0
40 -40 10
50 -40 10
40 -30 10
50 -30 10
0 -30 0
10 -30 0
0 -20 0
10 -20 0
0 -30 10
10 -30 10
0 -20 10
10 -20 10
10 -30 0
20 -30 0
10 -20 0
20 -20 0
10 -30 10
20 -30 10
10 -20 10
20 -20 10
20 -30 0
30 -30 0
20 -20 0
30 -20 0
20 -30 10
30 -30 10
20 -20 10
30 -20 10
30 -30 0
40 -30 0
30 -20 0
40 -20 0
30 -30 10
40 -30 10
30 -20 10
40 -20 10
40 -30 0
50 -30 0
40 -20 0
50 -20 0
40 -30 10
50 -30 10
40 -20 10
50 -20 10
0 -20 0
10 -20 0
0 -10 0
10 -10 0
0 -20 10
10 -20 10
0 -10 10
10 -10 10
10 -20 0
20 -20 0
10 -10 0
20 -10 0
10 -20 10
20 -20 10
10 -10 10
20 -10 10
20 -20 0
30 -20 0
20 -10 0
30 -10 0
20 -20 10
30 -20 10
20 -10 10
30 -10 10
30 -20 0
40 -20 0
30 -10 0
40 -10 0
30 -20 10
40 -20 10
30 -10 10
40 -10 10
40 -20 0
50 -20 0
40 -10 0
50 -10 0
40 -20 10
50 -20 10
40 -10 10
50 -10 10
10 -10 0
20 -10 0
10 0 0
20 0 0
10 -10 10
20 -10 10
10 0 10
20 0 10
20 -10 0
30 -10 0
20 0 0
30 0 0
20 -10 10
30 -10 10
20 0 10
30 0 10
30 -10 0
40 -10 0
30 0 0
40 0 0
30 -10 10
40 -10 10
30 0 10
40 0 10
40 -10 0
50 -10 0
40 0 0
50 0 0
40 -10 10
50 -10 10
40 0 10
50 0 10
10 0 0
20 0 0
10 10 0
20 10 0
10 0 10
20 0 10
10 10 10
20 10 10
20 0 0
30 0 0
20 10 0
30 10 0
20 0 10
30 0 10
20 10 10
30 10 10
30 0 0
40 0 0
30 10 0
40 10 0
30 0 10
40 0 10
30 10 10
40 10 10
40 0 0
50 0 0
40 10 0
50 10 0
40 0 10
50 0 10
40 10 10
50 10 10
0 10 0
10 10 0
0 20 0
10 20 0
0 10 10
10 10 10
0 20 10
10 20 10
10 10 0
20 10 0
10 20 0
20 20 0
10 10 10
20 10 10
10 20 10
20 20 10
20 10 0
30 10 0
20 20 0
30 20 0
20 10 10
30 10 10
20 20 10
30 20 10
30 10 0
40 10 0
30 20 0
40 20 0
30 10 10
40 10 10
30 20 10
40 20 10
40 10 0
50 10 0
40 20 0
50 20 0
40 10 10
50 10 10
40 20 10
50 20 10
0 20 0
10 20 0
0 30 0
10 30 0
0 20 10
10 20 10
0 30 10
10 30 10
10 20 0
20 20 0
10 30 0
20 30 0
10 20 10
20 20 10
10 30 10
20 30 10
20 20 0
30 20 0
20 30 0
30 30 0
20 20 10
30 20 10
20 30 10
30 30 10
30 20 0
40 20 0
30 30 0
40 30 0
30 20 10
40 20 10
30 30 10
40 30 10
40 20 0
50 20 0
40 30 0
50 30 0
40 20 10
50 20 10
40 30 10
50 30 10
-50 30 0
-40 30 0
-50 40 0
-40 40 0
-50 30 10
-40 30 10
-50 40 10
-40 40 10
-40 30 0
-30 30 0
-40 40 0
-30 40 0
-40 30 10
-30 30 10
-40 40 10
-30 40 10
-30 30 0
-20 30 0
-30 40 0
-20 40 0
-30 30 10
-20 30 10
-30 40 10
-20 40 10
-20 30 0
-10 30 0
-20 40 0
-10 40 0
-20 30 10
-10 30 10
-20 40 10
-10 40 10
-10 30 0
0 30 0
-10 40 0
0 40 0
-10 30 10
0 30 10
-10 40 10
0 40 10
0 30 0
10 30 0
0 40 0
10 40 0
0 30 10
10 30 10
0 40 10
10 40 10
10 30 0
20 30 0
10 40 0
20 40 0
10 30 10
20 30 10
10 40 10
20 40 10
20 30 0
30 30 0
20 40 0
30 40 0
20 30 10
30 30 10
20 40 10
30 40 10
30 30 0
40 30 0
30 40 0
40 40 0
30 30 10
40 30 10
30 40 10
40 40 10
40 30 0
50 30 0
40 40 0
50 40 0
40 30 10
50 30 10
40 40 10
50 40 10
-50 40 0
-40 40 0
-50 50 0
-40 50 0
-50 40 10
-40 40 10
-50 50 10
-40 50 10
-40 40 0
-30 40 0
-40 50 0
-30 50 0
-40 40 10
-30 40 10
-40 50 10
-30 50 10
-30 40 0
-20 40 0
-30 50 0
-20 50 0
-30 40 10
-20 40 10
-30 50 10
-20 50 10
-20 40 0
-10 40 0
-20 50 0
-10 50 0
-20 40 10
-10 40 10
-20 50 10
-10 50 10
-10 40 0
0 40 0
-10 50 0
0 50 0
-10 40 10
0 40 10
-10 50 10
0 50 10
0 40 0
10 40 0
0 50 0
10 50 0
0 40 10
10 40 10
0 50 10
10 50 10
10 40 0
20 40 0
10 50 0
20 50 0
10 40 10
20 40 10
10 50 10
20 50 10
20 40 0
30 40 0
20 50 0
30 50 0
20 40 10
30 40 10
20 50 10
30 50 10
30 40 0
40 40 0
30 50 0
40 50 0
30 40 10
40 40 10
30 50 10
40 50 10
40 40 0
50 40 0
40 50 0
50 50 0
40 40 10
50 40 10
40 50 10
50 50 10
-50 -50 10
-40 -50 10
-50 -40 10
-40 -40 10
-50 -50 20
-40 -50 20
-50 -40 20
-40 -40 20
-40 -50 10
-30 -50 10
-40 -40 10
-30 -40 10
-40 -50 20
-30 -50 20
-40 -40 20
-30 -40 20
-30 -50 10
-20 -50 10
-30 -40 10
-20 -40 10
-30 -50 20
-20 -50 20
-30 -40 20
-20 -40 20
-20 -50 10
-10 -50 10
-20 -40 10
-10 -40 10
-20 -50 20
-10 -50 20
-20 -40 20
-10 -40 20
-10 -50 10
0 -50 10
-10 -40 10
0 -40 10
-10 -50 20
0 -50 20
-10 -40 20
0 -40 20
0 -50 10
10 -50 10
0 -40 10
10 -40 10
0 -50 20
10 -50 20
0 -40 20
10 -40 20
10 -50 10
20 -50 10
10 -40 10
20 -40 10
10 -50 20
20 -50 20
10 -40 20
20 -40 20
20 -50 10
30 -50 10
20 -40 10
30 -40 10
20 -50 20
30 -50 20
20 -40 20
30 -40 20
30 -50 10
40 -50 10
30 -40 10
40 -40 10
30 -50 20
40 -50 20
30 -40 20
40 -40 20
40 -50 10
50 -50 10
40 -40 10
50 -40 10
40 -50 20
50 -50 20
40 -40 20
50 -40 20
-50 -40 10
-40 -40 10
-50 -30 10
-40 -30 10
-50 -40 20
-40 -40 20
-50 -30 20
-40 -30 20
-40 -40 10
-30 -40 10
-40 -30 10
-30 -30 10
-40 -40 20
-30 -40 20
-40 -30 20
-30 -30 20
-20 -40 10
-10 -40 10
-20 -30 10
-10 -30 10
-20 -40 20
-10 -40 20
-20 -30 20
-10 -30 20
-10 -40 10
0 -40 10
-10 -30 10
0 -30 10
-10 -40 20
0 -40 20
-10 -30 20
0 -30 20
0 -40 10
10 -40 10
0 -30 10
10 -30 10
0 -40 20
10 -40 20
0 -30 20
10 -30 20
10 -40 10
20 -40 10
10 -30 10
20 -30 10
10 -40 20
20 -40 20
10 -30 20
20 -30 20
20 -40 10
30 -40 10
20 -30 10
30 -30 10
20 -40 20
30 -40 20
20 -30 20
30 -30 20
30 -40 10
40 -40 10
30 -30 10
40 -30 10
30 -40 20
40 -40 20
30 -30 20
40 -30 20
40 -40 10
50 -40 10
40 -30 10
50 -30 10
40 -40 20
50 -40 20
40 -30 20
50 -30 20
0 -30 10
10 -30 10
0 -20 10
10 -20 10
0 -30 20
10 -30 20
0 -20 20
10 -20 20
10 -30 10
20 -30 10
10 -20 10
20 -20 10
10 -30 20
20 -30 20
10 -20 20
20 -20 20
20 -30 10
30 -30 10
20 -20 10
30 -20 10
20 -30 20
30 -30 20
20 -20 20
30 -20 20
30 -30 10
40 -30 10
30 -20 10
40 -20 10
30 -30 20
40 -30 20
30 -20 20
40 -20 20
40 -30 10
50 -30 10
40 -20 10
50 -20 10
40 -30 20
50 -30 20
40 -20 20
50 -20 20
10 -20 10
20 -20 10
10 -10 10
20 -10 10
10 -20 20
20 -20 20
10 -10 20
20 -10 20
20 -20 10
30 -20 10
20 -10 10
30 -10 10
20 -20 20
30 -20 20
20 -10 20
30 -10 20
30 -20 10
40 -20 10
30 -10 10
40 -10 10
30 -20 20
40 -20 20
30 -10 20
40 -10 20
40 -20 10
50 -20 10
40 -10 10
50 -10 10
40 -20 20
50 -20 20
40 -10 20
50 -10 20
0 -10 10
10 -10 10
0 0 10
10 0 10
0 -10 20
10 -10 20
0 0 20
10 0 20
10 -10 10
20 -10 10
10 0 10
20 0 10
10 -10 20
20 -10 20
10 0 20
20 0 20
20 -10 10
30 -10 10
20 0 10
30 0 10
20 -10 20
30 -10 20
20 0 20
30 0 20
30 -10 10
40 -10 10
30 0 10
40 0 10
30 -10 20
40 -10 20
30 0 20
40 0 20
40 -10 10
50 -10 10
40 0 10
50 0 10
40 -10 20
50 -10 20
40 0 20
50 0 20
0 0 10
10 0 10
0 10 10
10 10 10
0 0 20
10 0 20
0 10 20
10 10 20
10 0 10
20 0 10
10 10 10
20 10 10
10 0 20
20 0 20
10 10 20
20 10 20
20 0 10
30 0 10
20 10 10
30 10 10
20 0 20
30 0 20
20 10 20
30 10 20
30 0 10
40 0 10
30 10 10
40 10 10
30 0 20
40 0 20
30 10 20
40 10 20
40 0 10
50 0 10
40 10 10
50 10 10
40 0 20
50 0 20
40 10 20
50 10 20
10 10 10
20 10 10
10 20 10
20 20 10
10 10 20
20 10 20
10 20 20
20 20 20
20 10 10
30 10 10
20 20 10
30 20 10
20 10 20
30 10 20
20 20 20
30 20 20
30 10 10
40 10 10
30 20 10
40 20 10
30 10 20
40 10 20
30 20 20
40 20 20
40 10 10
50 10 10
40 20 10
50 20 10
40 10 20
50 10 20
40 20 20
50 20 20
0 20 10
10 20 10
0 30 10
10 30 10
0 20 20
10 20 20
0 30 20
10 30 20
10 20 10
20 20 10
10 30 10
20 30 10
10 20 20
20 20 20
10 30 20
20 30 20
20 20 10
30 20 10
20 30 10
30 30 10
20 20 20
30 20 20
20 30 20
30 30 20
30 20 10
40 20 10
30 30 10
40 30 10
30 20 20
40 20 20
30 30 20
40 30 20
40 20 10
50 20 10
40 30 10
50 30 10
40 20 20
50 20 20
40 30 20
50 30 20
-50 30 10
-40 30 10
-50 40 10
-40 40 10
-50 30 20
-40 30 20
-50 40 20
-40 40 20
-40 30 10
-30 30 10
-40 40 10
-30 40 10
-40 30 20
-30 30 20
-40 40 20
-30 40 20
-20 30 10
-10 30 10
-20 40 10
-10 40 10
-20 30 20
-10 30 20
-20 40 20
-10 40 20
-10 30 10
0 30 10
-10 40 10
0 40 10
-10 30 20
0 30 20
-10 40 20
0 40 20
0 30 10
10 30 10
0 40 10
10 40 10
0 30 20
10 30 20
0 40 20
10 40 20
10 30 10
20 30 10
10 40 10
20 40 10
10 30 20
20 30 20
10 40 20
20 40 20
20 30 10
30 30 10
20 40 10
30 40 10
20 30 20
30 30 20
20 40 20
30 40 20
30 30 10
40 30 10
30 40 10
40 40 10
30 30 20
40 30 20
30 40 20
40 40 20
40 30 10
50 30 10
40 40 10
50 40 10
40 30 20
50 30 20
40 40 20
50 40 20
-50 40 10
-40 40 10
-50 50 10
-40 50 10
-50 40 20
-40 40 20
-50 50 20
-40 50 20
-40 40 10
-30 40 10
-40 50 10
-30 50 10
-40 40 20
-30 40 20
-40 50 20
-30 50 20
-30 40 10
-20 40 10
-30 50 10
-20 50 10
-30 40 20
-20 40 20
-30 50 20
-20 50 20
-20 40 10
-10 40 10
-20 50 10
-10 50 10
-20 40 20
-10 40 20
-20 50 20
-10 50 20
-10 40 10
0 40 10
-10 50 10
0 50 10
-10 40 20
0 40 20
-10 50 20
0 50 20
0 40 10
[...]
  <PointData Scalars="scalars">
    <DataArray type="Float32" Name="u" format="ascii">
0.303044 0.316931 0.372152 0.394809 0.297668 0.31074 0.36241 0.383192 0.316931 0.317202 0.394809 0.394857 0.31074 0.311001 0.383192 0.383207 0.317202 0.305252 0.394857 0.372744 0.311001 0.29966 0.383207 0.362866 0.305252 0.284434 0.372744 0.33778 0.29966 0.279974 0.362866 0.330477 0.284434 0.261054 0.33778 0.299541 0.279974 0.257619 0.330477 0.294561 0.261054 0.236881 0.299541 0.264594 0.257619 0.234349 0.294561 0.261007 0.236881 0.214355 0.264594 0.234152 0.234349 0.212455 0.261007 0.231708 0.214355 0.194195 0.234152 0.208594 0.212455 0.192785 0.231708 0.20684 0.194195 0.176561 0.208594 0.187188 0.192785 0.175498 0.20684 0.185922 0.176561 0.161038 0.187188 0.169334 0.175498 0.160234 0.185922 0.168397 0.372152 0.394809 0.476626 0.523958 0.36241 0.383192 0.458607 0.498642 0.394809 0.394857 0.523958 0.523655 0.383192 0.383207 0.498642 0.497052 0.394857 0.372744 0.523655 0.477086 0.383207 0.362866 0.497052 0.45666 0.372744 0.33778 0.477086 0.409587 0.362866 0.330477 0.45666 0.395978 0.33778 0.299541 0.409587 0.345799 0.330477 0.294561 0.395978 0.337228 0.299541 0.264594 0.345799 0.294033 0.294561 0.261007 0.337228 0.289361 0.264594 0.234152 0.294033 0.254155 0.261007 0.231708 0.289361 0.250879 0.234152 0.208594 0.254155 0.222294 0.231708 0.20684 0.250879 0.220171 0.208594 0.187188 0.222294 0.196948 0.20684 0.185922 0.220171 0.195476 0.187188 0.169334 0.196948 0.176465 0.185922 0.168397 0.195476 0.1754 0.345799 0.294033 0.394973 0.323201 0.337228 0.289361 0.384152 0.316472 0.294033 0.254155 0.323201 0.27233 0.289361 0.250879 0.316472 0.267828 0.254155 0.222294 0.27233 0.233932 0.250879 0.220171 0.267828 0.231481 0.222294 0.196948 0.233932 0.204963 0.220171 0.195476 0.231481 0.203264 0.196948 0.176465 0.204963 0.182119 0.195476 0.1754 0.203264 0.180957 0.394973 0.323201 0.437159 0.345302 0.384152 0.316472 0.421866 0.33685 0.323201 0.27233 0.345302 0.284465 0.316472 0.267828 0.33685 0.279892 0.27233 0.233932 0.284465 0.242733 0.267828 0.231481 0.279892 0.239193 0.233932 0.204963 0.242733 0.210234 0.231481 0.203264 0.239193 0.208491 0.204963 0.182119 0.210234 0.185809 0.203264 0.180957 0.208491 0.184539 0.345302 0.284465 0.357137 0.289108 0.33685 0.279892 0.345511 0.284444 0.284465 0.242733 0.289108 0.245168 0.279892 0.239193 0.284444 0.242747 0.242733 0.210234 0.245168 0.212227 0.239193 0.208491 0.242747 0.210239 0.210234 0.185809 0.212227 0.187055 0.208491 0.184539 0.210239 0.18581 0.357137 0.289108 0.345292 0.284466 0.345511 0.284444 0.336889 0.279894 0.289108 0.245168 0.284466 0.242733 0.284444 0.242747 0.279894 0.239194 0.245168 0.212227 0.242733 0.210234 0.242747 0.210239 0.239194 0.208491 0.212227 0.187055 0.210234 0.185809 0.210239 0.18581 0.208491 0.18454 0.437187 0.345292 0.39497 0.3232 0.421814 0.336889 0.384151 0.316472 0.345292 0.284466 0.3232 0.272331 0.336889 0.279894 0.316472 0.267829 0.284466 0.242733 0.272331 0.233932 0.279894 0.239194 0.267829 0.231481 0.242733 0.210234 0.233932 0.204964 0.239194 0.208491 0.231481 0.203265 0.210234 0.185809 0.204964 0.182119 0.208491 0.18454 0.203265 0.180957 0.39497 0.3232 0.345797 0.294033 0.384151 0.316472 0.337226 0.28936 0.3232 0.272331 0.294033 0.254155 0.316472 0.267829 0.28936 0.250879 0.272331 0.233932 0.254155 0.222294 0.267829 0.231481 0.250879 0.220171 0.233932 0.204964 0.222294 0.196948 0.231481 0.203265 0.220171 0.195476 0.204964 0.182119 0.196948 0.176465 0.203265 0.180957 0.195476 0.1754 0.476616 0.523929 0.372148 0.394805 0.458606 0.498633 0.362408 0.38319 0.523929 0.523628 0.394805 0.394852 0.498633 0.49704 0.38319 0.383205 0.523628 0.477076 0.394852 0.37274 0.49704 0.456655 0.383205 0.362863 0.477076 0.409582 0.37274 0.337778 0.456655 0.395975 0.362863 0.330475 0.409582 0.345797 0.337778 0.29954 0.395975 0.337226 0.330475 0.29456 0.345797 0.294033 0.29954 0.264593 0.337226 0.28936 0.29456 0.261006 0.294033 0.254155 0.264593 0.234152 0.28936 0.250879 0.261006 0.231707 0.254155 0.222294 0.234152 0.208594 0.250879 0.220171 0.231707 0.20684 0.222294 0.196948 0.208594 0.187188 0.220171 0.195476 0.20684 0.185922 0.196948 0.176465 0.187188 0.169334 0.195476 0.1754 0.185922 0.168397 0.372148 0.394805 0.303041 0.316928 0.362408 0.38319 0.297666 0.310739 0.394805 0.394852 0.316928 0.3172 0.38319 0.383205 0.310739 0.311 0.394852 0.37274 0.3172 0.30525 0.383205 0.362863 0.311 0.299658 0.37274 0.337778 0.30525 0.284433 0.362863 0.330475 0.299658 0.279973 0.337778 0.29954 0.284433 0.261053 0.330475 0.29456 0.279973 0.257618 0.29954 0.264593 0.261053 0.236881 0.29456 0.261006 0.257618 0.234349 0.264593 0.234152 0.236881 0.214354 0.261006 0.231707 0.234349 0.212455 0.234152 0.208594 0.214354 0.194195 0.231707 0.20684 0.212455 0.192785 0.208594 0.187188 0.194195 0.176561 0.20684 0.185922 0.192785 0.175498 0.187188 0.169334 0.176561 0.161038 0.185922 0.168397 0.175498 0.160234 0.297668 0.31074 0.36241 0.383192 0.283157 0.294173 0.337017 0.353616 0.31074 0.311001 0.383192 0.383207 0.294173 0.294348 0.353616 0.353685 0.311001 0.29966 0.383207 0.362866 0.294348 0.283761 0.353685 0.337245 0.29966 0.279974 0.362866 0.330477 0.283761 0.268214 0.337245 0.3105 0.279974 0.257619 0.330477 0.294561 0.268214 0.248131 0.3105 0.280547 0.257619 0.234349 0.294561 0.261007 0.248131 0.227162 0.280547 0.251196 0.234349 0.212455 0.261007 0.231708 0.227162 0.207059 0.251196 0.224751 0.212455 0.192785 0.231708 0.20684 0.207059 0.188723 0.224751 0.201843 0.192785 0.175498 0.20684 0.185922 0.188723 0.172417 0.201843 0.18227 0.175498 0.160234 0.185922 0.168397 0.172417 0.15789 0.18227 0.165673 0.36241 0.383192 0.458607 0.498642 0.337017 0.353616 0.410482 0.43881 0.383192 0.383207 0.498642 0.497052 0.353616 0.353685 0.43881 0.438334 0.362866 0.330477 0.45666 0.395978 0.337245 0.3105 0.409063 0.362793 0.330477 0.294561 0.395978 0.337228 0.3105 0.280547 0.362793 0.316855 0.294561 0.261007 0.337228 0.289361 0.280547 0.251196 0.316855 0.27612 0.261007 0.231708 0.289361 0.250879 0.251196 0.224751 0.27612 0.242076 0.231708 0.20684 0.250879 0.220171 0.224751 0.201843 0.242076 0.21416 0.20684 0.185922 0.220171 0.195476 0.201843 0.18227 0.21416 0.191241 0.185922 0.168397 0.195476 0.1754 0.18227 0.165673 0.191241 0.172326 0.337228 0.289361 0.384152 0.316472 0.316855 0.27612 0.353499 0.298723 0.289361 0.250879 0.316472 0.267828 0.27612 0.242076 0.298723 0.257312 0.250879 0.220171 0.267828 0.231481 0.242076 0.21416 0.257312 0.224495 0.220171 0.195476 0.231481 0.203264 0.21416 0.191241 0.224495 0.198494 0.195476 0.1754 0.203264 0.180957 0.191241 0.172326 0.198494 0.177577 0.316472 0.267828 0.33685 0.279892 0.298723 0.257312 0.31664 0.26855 0.267828 0.231481 0.279892 0.239193 0.257312 0.224495 0.26855 0.231448 0.231481 0.203264 0.239193 0.208491 0.224495 0.198494 0.231448 0.203283 0.203264 0.180957 0.208491 0.184539 0.198494 0.177577 0.203283 0.180963 0.421866 0.33685 0.436555 0.345511 0.384184 0.31664 0.394931 0.323186 0.33685 0.279892 0.345511 0.284444 0.31664 0.26855 0.323186 0.272032 0.279892 0.239193 0.284444 0.242747 0.26855 0.231448 0.272032 0.234026 0.239193 0.208491 0.242747 0.210239 0.231448 0.203283 0.234026 0.204973 0.208491 0.184539 0.210239 0.18581 0.203283 0.180963 0.204973 0.182129 0.436555 0.345511 0.421814 0.336889 0.394931 0.323186 0.384215 0.31664 0.345511 0.284444 0.336889 0.279894 0.323186 0.272032 0.31664 0.268551 0.284444 0.242747 0.279894 0.239194 0.272032 0.234026 0.268551 0.231448 0.242747 0.210239 0.239194 0.208491 0.234026 0.204973 0.231448 0.203283 0.210239 0.18581 0.208491 0.18454 0.204973 0.182129 0.203283 0.180963 0.336889 0.279894 0.316472 0.267829 0.31664 0.268551 0.298723 0.257313 0.279894 0.239194 0.267829 0.231481 0.268551 0.231448 0.257313 0.224495 0.239194 0.208491 0.231481 0.203265 0.231448 0.203283 0.224495 0.198494 0.208491 0.18454 0.203265 0.180957 0.203283 0.180963 0.198494 0.177577 0.384151 0.316472 0.337226 0.28936 0.353492 0.298723 0.316855 0.27612 0.316472 0.267829 0.28936 0.250879 0.298723 0.257313 0.27612 0.242076 0.267829 0.231481 0.250879 0.220171 0.257313 0.224495 0.242076 0.21416 0.231481 0.203265 0.220171 0.195476 0.224495 0.198494 0.21416 0.191241 0.203265 0.180957 0.195476 0.1754 0.198494 0.177577 0.191241 0.172326 0.458606 0.498633 0.362408 0.38319 0.410485 0.438815 0.337017 0.353616 0.498633 0.49704 0.38319 0.383205 0.438815 0.438339 0.353616 0.353684 0.456655 0.395975 0.362863 0.330475 0.409064 0.362793 0.337244 0.3105 0.395975 0.337226 0.330475 0.29456 0.362793 0.316855 0.3105 0.280546 0.337226 0.28936 0.29456 0.261006 0.316855 0.27612 0.280546 0.251195 0.28936 0.250879 0.261006 0.231707 0.27612 0.242076 0.251195 0.224751 0.250879 0.220171 0.231707 0.20684 0.242076 0.21416 0.224751 0.201843 0.220171 0.195476 0.20684 0.185922 0.21416 0.191241 0.201843 0.18227 0.195476 0.1754 0.185922 0.168397 0.191241 0.172326 0.18227 0.165673 0.362408 0.38319 0.297666 0.310739 0.337017 0.353616 0.283156 0.294173 0.38319 0.383205 0.310739 0.311 0.353616 0.353684 0.294173 0.294347 0.383205 0.362863 0.311 0.299658 0.353684 0.337244 0.294347 0.28376 0.362863 0.330475 0.299658 0.279973 0.337244 0.3105 0.28376 0.268213 0.330475 0.29456 0.279973 0.257618 0.3105 0.280546 0.268213 0.24813 0.29456 0.261006 0.257618 0.234349 0.280546 0.251195 0.24813 0.227161 0.261006 0.231707 0.234349 0.212455 0.251195 0.224751 0.227161 0.207058 0.231707 0.20684 0.212455 0.192785 0.224751 0.201843 0.207058 0.188722 0.20684 0.185922 0.192785 0.175498 0.201843 0.18227 0.188722 0.172417 0.185922 0.168397 0.175498 0.160234 0.18227 0.165673 0.172417 0.15789 0.283157 0.294173 0.337017 0.353616 0.263469 0.271584 0.304636 0.316646 0.294173 0.294348 0.353616 0.353685 0.271584 0.271748 0.316646 0.316713 0.294348 0.283761 0.353685 0.337245 0.271748 0.264402 0.316713 0.304877 0.283761 0.268214 0.337245 0.3105 0.264402 0.251084 0.304877 0.284971 0.268214 0.248131 0.3105 0.280547 0.251084 0.234432 0.284971 0.261197 0.248131 0.227162 0.280547 0.251196 0.234432 0.216503 0.261197 0.236996 0.227162 0.207059 0.251196 0.224751 0.216503 0.198889 0.236996 0.214413 0.207059 0.188723 0.224751 0.201843 0.198889 0.182475 0.214413 0.194254 0.188723 0.172417 0.201843 0.18227 0.182475 0.167617 0.194254 0.176626 0.172417 0.15789 0.18227 0.165673 0.167617 0.154196 0.176626 0.161407 0.337017 0.353616 0.410482 0.43881 0.304636 0.316646 0.354553 0.371838 0.353616 0.353685 0.43881 0.438334 0.316646 0.316713 0.371838 0.371884 0.353685 0.337245 0.438334 0.409063 0.316713 0.304877 0.371884 0.353809 0.337245 0.3105 0.409063 0.362793 0.304877 0.284971 0.353809 0.323411 0.3105 0.280547 0.362793 0.316855 0.284971 0.261197 0.323411 0.289755 0.280547 0.251196 0.316855 0.27612 0.261197 0.236996 0.289755 0.257632 0.251196 0.224751 0.27612 0.242076 0.236996 0.214413 0.257632 0.229316 0.224751 0.201843 0.242076 0.21416 0.214413 0.194254 0.229316 0.205159 0.201843 0.18227 0.21416 0.191241 0.194254 0.176626 0.205159 0.18475 0.18227 0.165673 0.191241 0.172326 0.176626 0.161407 0.18475 0.16754 0.362793 0.316855 0.420783 0.353499 0.323411 0.289755 0.362713 0.316882 0.316855 0.27612 0.353499 0.298723 0.289755 0.257632 0.316882 0.27599 0.27612 0.242076 0.298723 0.257312 0.257632 0.229316 0.27599 0.242078 0.242076 0.21416 0.257312 0.224495 0.229316 0.205159 0.242078 0.214182 0.21416 0.191241 0.224495 0.198494 0.205159 0.18475 0.214182 0.191259 0.191241 0.172326 0.198494 0.177577 0.18475 0.16754 0.191259 0.172347 0.353499 0.298723 0.384184 0.31664 0.316882 0.27599 0.337268 0.289153 0.298723 0.257312 0.31664 0.26855 0.27599 0.242078 0.289153 0.250889 0.257312 0.224495 0.26855 0.231448 0.242078 0.214182 0.250889 0.220215 0.224495 0.198494 0.231448 0.203283 0.214182 0.191259 0.220215 0.195503 0.198494 0.177577 0.203283 0.180963 0.191259 0.172347 0.195503 0.175429 0.384184 0.31664 0.394931 0.323186 0.337268 0.289153 0.345806 0.293955 0.31664 0.26855 0.323186 0.272032 0.289153 0.250889 0.293955 0.254075 0.26855 0.231448 0.272032 0.234026 0.250889 0.220215 0.254075 0.222325 0.231448 0.203283 0.234026 0.204973 0.220215 0.195503 0.222325 0.196984 0.203283 0.180963 0.204973 0.182129 0.195503 0.175429 0.196984 0.176494 0.394931 0.323186 0.384215 0.31664 0.345806 0.293955 0.337276 0.289153 0.323186 0.272032 0.31664 0.268551 0.293955 0.254075 0.289153 0.250889 0.272032 0.234026 0.268551 0.231448 0.254075 0.222325 0.250889 0.220215 0.234026 0.204973 0.231448 0.203283 0.222325 0.196984 0.220215 0.195503 0.204973 0.182129 0.203283 0.180963 0.196984 0.176494 0.195503 0.175429 0.384215 0.31664 0.353492 0.298723 0.337276 0.289153 0.316883 0.27599 0.31664 0.268551 0.298723 0.257313 0.289153 0.250889 0.27599 0.242078 0.268551 0.231448 0.257313 0.224495 0.250889 0.220215 0.242078 0.214182 0.231448 0.203283 0.224495 0.198494 0.220215 0.195503 0.214182 0.191259 0.203283 0.180963 0.198494 0.177577 0.195503 0.175429 0.191259 0.172347 0.420785 0.353492 0.362793 0.316855 0.362721 0.316883 0.32341 0.289755 0.353492 0.298723 0.316855 0.27612 0.316883 0.27599 0.289755 0.257631 0.298723 0.257313 0.27612 0.242076 0.27599 0.242078 0.257631 0.229316 0.257313 0.224495 0.242076 0.21416 0.242078 0.214182 0.229316 0.205159 0.224495 0.198494 0.21416 0.191241 0.214182 0.191259 0.205159 0.18475 0.198494 0.177577 0.191241 0.172326 0.191259 0.172347 0.18475 0.16754 0.410485 0.438815 0.337017 0.353616 0.354557 0.37184 0.304637 0.316647 0.438815 0.438339 0.353616 0.353684 0.37184 0.371879 0.316647 0.316714 0.438339 0.409064 0.353684 0.337244 0.371879 0.353814 0.316714 0.304876 0.409064 0.362793 0.337244 0.3105 0.353814 0.32341 0.304876 0.284971 0.362793 0.316855 0.3105 0.280546 0.32341 0.289755 0.284971 0.261197 0.316855 0.27612 0.280546 0.251195 0.289755 0.257631 0.261197 0.236996 0.27612 0.242076 0.251195 0.224751 0.257631 0.229316 0.236996 0.214413 0.242076 0.21416 0.224751 0.201843 0.229316 0.205159 0.214413 0.194254 0.21416 0.191241 0.201843 0.18227 0.205159 0.18475 0.194254 0.176626 0.191241 0.172326 0.18227 0.165673 0.18475 0.16754 0.176626 0.161407 0.337017 0.353616 0.283156 0.294173 0.304637 0.316647 0.263469 0.271584 0.353616 0.353684 0.294173 0.294347 0.316647 0.316714 0.271584 0.271747 0.353684 0.337244 0.294347 0.28376 0.316714 0.304876 0.271747 0.264402 0.337244 0.3105 0.28376 0.268213 0.304876 0.284971 0.264402 0.251084 0.3105 0.280546 0.268213 0.24813 0.284971 0.261197 0.251084 0.234432 0.280546 0.251195 0.24813 0.227161 0.261197 0.236996 0.234432 0.216503 0.251195 0.224751 0.227161 0.207058 0.236996 0.214413 0.216503 0.198889 0.224751 0.201843 0.207058 0.188722 0.214413 0.194254 0.198889 0.182475 0.201843 0.18227 0.188722 0.172417 0.194254 0.176626 0.182475 0.167617 0.18227 0.165673 0.172417 0.15789 0.176626 0.161407 0.167617 0.154196 0.263469 0.271584 0.304636 0.316646 0.241601 0.247797 0.272035 0.280267 0.271584 0.271748 0.316646 0.316713 0.247797 0.247889 0.280267 0.280362 0.271748 0.264402 0.316713 0.304877 0.247889 0.242213 0.280362 0.272159 0.264402 0.251084 0.304877 0.284971 0.242213 0.231884 0.272159 0.257691 0.251084 0.234432 0.284971 0.261197 0.231884 0.218528 0.257691 0.239682 0.234432 0.216503 0.261197 0.236996 0.218528 0.203776 0.239682 0.220585 0.216503 0.198889 0.236996 0.214413 0.203776 0.188888 0.220585 0.202037 0.198889 0.182475 0.214413 0.194254 0.188888 0.174664 0.202037 0.184913 0.182475 0.167617 0.194254 0.176626 0.174664 0.161508 0.184913 0.169521 0.167617 0.154196 0.176626 0.161407 0.161508 0.149419 0.169521 0.155939 0.304636 0.316646 0.354553 0.371838 0.272035 0.280267 0.304539 0.316588 0.316646 0.316713 0.371838 0.371884 0.280267 0.280362 0.316588 0.316569 0.316713 0.304877 0.371884 0.353809 0.280362 0.272159 0.316569 0.304766 0.304877 0.284971 0.353809 0.323411 0.272159 0.257691 0.304766 0.284909 0.284971 0.261197 0.323411 0.289755 0.257691 0.239682 0.284909 0.261142 0.261197 0.236996 0.289755 0.257632 0.239682 0.220585 0.261142 0.236942 0.236996 0.214413 0.257632 0.229316 0.220585 0.202037 0.236942 0.214382 0.214413 0.194254 0.229316 0.205159 0.202037 0.184913 0.214382 0.19425 0.194254 0.176626 0.205159 0.18475 0.184913 0.169521 0.19425 0.176667 0.176626 0.161407 0.18475 0.16754 0.169521 0.155939 0.176667 0.161451 0.354553 0.371838 0.410386 0.438713 0.304539 0.316588 0.337017 0.353498 0.371838 0.371884 0.438713 0.438155 0.316588 0.316569 0.353498 0.353495 0.371884 0.353809 0.438155 0.408985 0.316569 0.304766 0.353495 0.336889 0.353809 0.323411 0.408985 0.362713 0.304766 0.284909 0.336889 0.310445 0.323411 0.289755 0.362713 0.316882 0.284909 0.261142 0.310445 0.280408 0.289755 0.257632 0.316882 0.27599 0.261142 0.236942 0.280408 0.25111 0.257632 0.229316 0.27599 0.242078 0.236942 0.214382 0.25111 0.2247 0.229316 0.205159 0.242078 0.214182 0.214382 0.19425 0.2247 0.201844 0.205159 0.18475 0.214182 0.191259 0.19425 0.176667 0.201844 0.182333 0.18475 0.16754 0.191259 0.172347 0.176667 0.161451 0.182333 0.16574 0.410386 0.438713 0.458292 0.498494 0.337017 0.353498 0.362338 0.383027 0.438713 0.438155 0.498494 0.497661 0.353498 0.353495 0.383027 0.383002 0.408985 0.362713 0.456493 0.395904 0.336889 0.310445 0.362563 0.329615 0.362713 0.316882 0.395904 0.337268 0.310445 0.280408 0.329615 0.294331 0.316882 0.27599 0.337268 0.289153 0.280408 0.25111 0.294331 0.260914 0.27599 0.242078 0.289153 0.250889 0.25111 0.2247 0.260914 0.231642 0.242078 0.214182 0.250889 0.220215 0.2247 0.201844 0.231642 0.206844 0.214182 0.191259 0.220215 0.195503 0.201844 0.182333 0.206844 0.185998 0.191259 0.172347 0.195503 0.175429 0.182333 0.16574 0.185998 0.168474 0.458292 0.498494 0.476178 0.523716 0.362338 0.383027 0.372039 0.394605 0.498494 0.497661 0.523716 0.52358 0.383027 0.383002 0.394605 0.394585 0.497661 0.456493 0.52358 0.477026 0.383002 0.362563 0.394585 0.372456 0.456493 0.395904 0.477026 0.40964 0.362563 0.329615 0.372456 0.337301 0.395904 0.337268 0.40964 0.345806 0.329615 0.294331 0.337301 0.299395 0.337268 0.289153 0.345806 0.293955 0.294331 0.260914 0.299395 0.264471 0.289153 0.250889 0.293955 0.254075 0.260914 0.231642 0.264471 0.234096 0.250889 0.220215 0.254075 0.222325 0.231642 0.206844 0.234096 0.208596 0.220215 0.195503 0.222325 0.196984 0.206844 0.185998 0.208596 0.187267 0.195503 0.175429 0.196984 0.176494 0.185998 0.168474 0.187267 0.169414 0.476178 0.523716 0.458317 0.498457 0.372039 0.394605 0.362337 0.383015 0.523716 0.52358 0.498457 0.496878 0.394605 0.394585 0.383015 0.38294 0.52358 0.477026 0.496878 0.45655 0.394585 0.372456 0.38294 0.362544 0.477026 0.40964 0.45655 0.395905 0.372456 0.337301 0.362544 0.329614 0.40964 0.345806 0.395905 0.337276 0.337301 0.299395 0.329614 0.294331 0.345806 0.293955 0.337276 0.289153 0.299395 0.264471 0.294331 0.260915 0.293955 0.254075 0.289153 0.250889 0.264471 0.234096 0.260915 0.231642 0.254075 0.222325 0.250889 0.220215 0.234096 0.208596 0.231642 0.206844 0.222325 0.196984 0.220215 0.195503 0.208596 0.187267 0.206844 0.185998 0.196984 0.176494 0.195503 0.175429 0.187267 0.169414 0.185998 0.168474 0.458317 0.498457 0.410388 0.438733 0.362337 0.383015 0.337017 0.353495 0.498457 0.496878 0.438733 0.438236 0.383015 0.38294 0.353495 0.353479 0.45655 0.395905 0.408966 0.362721 0.362544 0.329614 0.33688 0.310444 0.395905 0.337276 0.362721 0.316883 0.329614 0.294331 0.310444 0.280408 0.337276 0.289153 0.316883 0.27599 0.294331 0.260915 0.280408 0.25111 0.289153 0.250889 0.27599 0.242078 0.260915 0.231642 0.25111 0.2247 0.250889 0.220215 0.242078 0.214182 0.231642 0.206844 0.2247 0.201844 0.220215 0.195503 0.214182 0.191259 0.206844 0.185998 0.201844 0.182333 0.195503 0.175429 0.191259 0.172347 0.185998 0.168474 0.182333 0.16574 0.410388 0.438733 0.354557 0.37184 0.337017 0.353495 0.304539 0.316588 0.438733 0.438236 0.37184 0.371879 0.353495 0.353479 0.316588 0.316569 0.438236 0.408966 0.371879 0.353814 0.353479 0.33688 0.316569 0.304764 0.408966 0.362721 0.353814 0.32341 0.33688 0.310444 0.304764 0.284909 0.362721 0.316883 0.32341 0.289755 0.310444 0.280408 0.284909 0.261142 0.316883 0.27599 0.289755 0.257631 0.280408 0.25111 0.261142 0.236942 0.27599 0.242078 0.257631 0.229316 0.25111 0.2247 0.236942 0.214382 0.242078 0.214182 0.