<?xml version="1.0" ?> 
<!-- 
# vtk DataFile Version 3.0
#This file was generated by the deal.II library on 16:47:17 at 2019/11/27
-->
<VTKFile type="UnstructuredGrid" version="0.1" byte_order="LittleEndian">
<UnstructuredGrid>
<Piece NumberOfPoints="9680" NumberOfCells="1210" >
  <Points>
    <DataArray type="Float32" NumberOfComponents="3" format="ascii">
-50 -50 0
-40 -50 0
-50 -40 0
-40 -40 0
-50 -50 10
-40 -50 10
-50 -40 10
-40 -40 10
-40 -50 0
-30 -50 0
-40 -40 0
-30 -40 0
-40 -50 10
-30 -50 10
-40 -40 10
-30 -40 10
-30 -50 0
-20 -50 0
-30 -40 0
-20 -40 0
-30 -50 10
-20 -50 10
-30 -40 10
-20 -40 10
-20 -50 0
-10 -50 0
-20 -40 0
-10 -40 0
-20 -50 10
-10 -50 10
-20 -40 10
-10 -40 10
-10 -50 0
0 -50 0
-10 -40 0
0 -40 0
-10 -50 10
0 -50 10
-10 -40 10
0 -40 10
0 -50 0
10 -50 0
0 -40 0
10 -40 0
0 -50 10
10 -50 10
0 -40 10
10 -40 10
10 -50 0
20 -50 0
10 -40 0
20 -40 0
10 -50 10
20 -50 10
10 -40 10
20 -40 10
20 -50 0
30 -50 0
20 -40 0
30 -40 0
20 -50 10
30 -50 10
20 -40 10
30 -40 10
30 -50 0
40 -50 0
30 -40 0
40 -40 0
30 -50 10
40 -50 10
30 -40 10
40 -40 10
40 -50 0
50 -50 0
40 -40 0
50 -40 0
40 -50 10
50 -50 10
40 -40 10
50 -40 10
-50 -40 0
-40 -40 0
-50 -30 0
-40 -30 0
-50 -40 10
-40 -40 10
-50 -30 10
-40 -30 10
-40 -40 0
-30 -40 0
-40 -30 0
-30 -30 0
-40 -40 10
-30 -40 10
-40 -30 10
-30 -30 10
-30 -40 0
-20 -40 0
-30 -30 0
-20 -30 0
-30 -40 10
-20 -40 10
-30 -30 10
-20 -30 10
-20 -40 0
-10 -40 0
-20 -30 0
-10 -30 0
-20 -40 10
-10 -40 10
-20 -30 10
-10 -30 10
-10 -40 0
0 -40 0
-10 -30 0
0 -30 0
-10 -40 10
0 -40 10
-10 -30 10
0 -30 10
0 -40 0
10 -40 0
0 -30 0
10 -30 0
0 -40 10
10 -40 10
0 -30 10
10 -30 10
10 -40 0
20 -40 0
10 -30 0
20 -30 0
10 -40 10
20 -40 10
10 -30 10
20 -30 10
20 -40 0
30 -40 0
20 -30 0
30 -30 0
20 -40 10
30 -40 10
20 -30 10
30 -30 10
30 -40 0
40 -40 0
30 -30 0
40 -30 0
30 -40 10
40 -40 10
30 -30 10
40 -30 10
40 -40 0
50 -40 0
40 -30 0
50 -30 0
40 -40 10
50 -40 10
40 -30 10
50 -30 10
-50 -30 0
-40 -30 0
-50 -20 0
-40 -20 0
-50 -30 10
-40 -30 10
-50 -20 10
-40 -20 10
-40 -30 0
-30 -30 0
-40 -20 0
-30 -20 0
-40 -30 10
-30 -30 10
-40 -20 10
-30 -20 10
-30 -30 0
-20 -30 0
-30 -20 0
-20 -20 0
-30 -30 10
-20 -30 10
-30 -20 10
-20 -20 10
-20 -30 0
-10 -30 0
-20 -20 0
-10 -20 0
-20 -30 10
-10 -30 10
-20 -20 10
-10 -20 10
-10 -30 0
0 -30 0
-10 -20 0
0 -20 0
-10 -30 10
0 -30 10
-10 -20 10
0 -20 10
0 -30 0
10 -30 0
0 -20 0
10 -20 0
0 -30 10
10 -30 10
0 -20 10
10 -20 10
10 -30 0
20 -30 0
10 -20 0
20 -20 0
10 -30 10
20 -30 10
10 -20 10
20 -20 10
20 -30 0
30 -30 0
20 -20 0
30 -20 0
20 -30 10
30 -30 10
20 -20 10
30 -20 10
30 -30 0
40 -30 0
30 -20 0
40 -20 0
30 -30 10
40 -30 10
30 -20 10
40 -20 10
40 -30 0
50 -30 0
40 -20 0
50 -20 0
40 -30 10
50 -30 10
40 -20 10
50 -20 10
-50 -20 0
-40 -20 0
-50 -10 0
-40 -10 0
-50 -20 10
-40 -20 10
-50 -10 10
-40 -10 10
-40 -20 0
-30 -20 0
-40 -10 0
-30 -10 0
-40 -20 10
-30 -20 10
-40 -10 10
-30 -10 10
-30 -20 0
-20 -20 0
-30 -10 0
-20 -10 0
-30 -20 10
-20 -20 10
-30 -10 10
-20 -10 10
-20 -20 0
-10 -20 0
-20 -10 0
-10 -10 0
-20 -20 10
-10 -20 10
-20 -10 10
-10 -10 10
-10 -20 0
0 -20 0
-10 -10 0
0 -10 0
-10 -20 10
0 -20 10
-10 -10 10
0 -10 10
0 -20 0
10 -20 0
0 -10 0
10 -10 0
0 -20 10
10 -20 10
0 -10 10
10 -10 10
10 -20 0
20 -20 0
10 -10 0
20 -10 0
10 -20 10
20 -20 10
10 -10 10
20 -10 10
20 -20 0
30 -20 0
20 -10 0
30 -10 0
20 -20 10
30 -20 10
20 -10 10
30 -10 10
30 -20 0
40 -20 0
30 -10 0
40 -10 0
30 -20 10
40 -20 10
30 -10 10
40 -10 10
40 -20 0
50 -20 0
40 -10 0
50 -10 0
40 -20 10
50 -20 10
40 -10 10
50 -10 10
-50 -10 0
-40 -10 0
-50 0 0
-40 0 0
-50 -10 10
-40 -10 10
-50 0 10
-40 0 10
-40 -10 0
-30 -10 0
-40 0 0
-30 0 0
-40 -10 10
-30 -10 10
-40 0 10
-30 0 10
30 -10 0
40 -10 0
30 0 0
40 0 0
30 -10 10
40 -10 10
30 0 10
40 0 10
40 -10 0
50 -10 0
40 0 0
50 0 0
40 -10 10
50 -10 10
40 0 10
50 0 10
-50 0 0
-40 0 0
-50 10 0
-40 10 0
-50 0 10
-40 0 10
-50 10 10
-40 10 10
-40 0 0
-30 0 0
-40 10 0
-30 10 0
-40 0 10
-30 0 10
-40 10 10
-30 10 10
30 0 0
40 0 0
30 10 0
40 10 0
30 0 10
40 0 10
30 10 10
40 10 10
40 0 0
50 0 0
40 10 0
50 10 0
40 0 10
50 0 10
40 10 10
50 10 10
-50 10 0
-40 10 0
-50 20 0
-40 20 0
-50 10 10
-40 10 10
-50 20 10
-40 20 10
-40 10 0
-30 10 0
-40 20 0
-30 20 0
-40 10 10
-30 10 10
-40 20 10
-30 20 10
-30 10 0
-20 10 0
-30 20 0
-20 20 0
-30 10 10
-20 10 10
-30 20 10
-20 20 10
-20 10 0
-10 10 0
-20 20 0
-10 20 0
-20 10 10
-10 10 10
-20 20 10
-10 20 10
-10 10 0
0 10 0
-10 20 0
0 20 0
-10 10 10
0 10 10
-10 20 10
0 20 10
0 10 0
10 10 0
0 20 0
10 20 0
0 10 10
10 10 10
0 20 10
10 20 10
10 10 0
20 10 0
10 20 0
20 20 0
10 10 10
20 10 10
10 20 10
20 20 10
20 10 0
30 10 0
20 20 0
30 20 0
20 10 10
30 10 10
20 20 10
30 20 10
30 10 0
40 10 0
30 20 0
40 20 0
30 10 10
40 10 10
30 20 10
40 20 10
40 10 0
50 10 0
40 20 0
50 20 0
40 10 10
50 10 10
40 20 10
50 20 10
-50 20 0
-40 20 0
-50 30 0
-40 30 0
-50 20 10
-40 20 10
-50 30 10
-40 30 10
-40 20 0
-30 20 0
-40 30 0
-30 30 0
-40 20 10
-30 20 10
-40 30 10
-30 30 10
-30 20 0
-20 20 0
-30 30 0
-20 30 0
-30 20 10
-20 20 10
-30 30 10
-20 30 10
-20 20 0
-10 20 0
-20 30 0
-10 30 0
-20 20 10
-10 20 10
-20 30 10
-10 30 10
-10 20 0
0 20 0
-10 30 0
0 30 0
-10 20 10
0 20 10
-10 30 10
0 30 10
0 20 0
10 20 0
0 30 0
10 30 0
0 20 10
10 20 10
0 30 10
10 30 10
10 20 0
20 20 0
10 30 0
20 30 0
10 20 10
20 20 10
10 30 10
20 30 10
20 20 0
30 20 0
20 30 0
30 30 0
20 20 10
30 20 10
20 30 10
30 30 10
30 20 0
40 20 0
30 30 0
40 30 0
30 20 10
40 20 10
30 30 10
40 30 10
40 20 0
50 20 0
40 30 0
50 30 0
40 20 10
50 20 10
40 30 10
50 30 10
-50 30 0
-40 30 0
-50 40 0
-40 40 0
-50 30 10
-40 30 10
-50 40 10
-40 40 10
-40 30 0
-30 30 0
-40 40 0
-30 40 0
-40 30 10
-30 30 10
-40 40 10
-30 40 10
-30 30 0
-20 30 0
-30 40 0
-20 40 0
-30 30 10
-20 30 10
-30 40 10
-20 40 10
-20 30 0
-10 30 0
-20 40 0
-10 40 0
-20 30 10
-10 30 10
-20 40 10
-10 40 10
-10 30 0
0 30 0
-10 40 0
0 40 0
-10 30 10
0 30 10
-10 40 10
0 40 10
0 30 0
10 30 0
0 40 0
10 40 0
0 30 10
10 30 10
0 40 10
10 40 10
10 30 0
20 30 0
10 40 0
20 40 0
10 30 10
20 30 10
10 40 10
20 40 10
20 30 0
30 30 0
20 40 0
30 40 0
20 30 10
30 30 10
20 40 10
30 40 10
30 30 0
40 30 0
30 40 0
40 40 0
30 30 10
40 30 10
30 40 10
40 40 10
40 30 0
50 30 0
40 40 0
50 40 0
40 30 10
50 30 10
40 40 10
50 40 10
-50 40 0
-40 40 0
-50 50 0
-40 50 0
-50 40 10
-40 40 10
-50 50 10
-40 50 10
-40 40 0
-30 40 0
-40 50 0
-30 50 0
-40 40 10
-30 40 10
-40 50 10
-30 50 10
-30 40 0
-20 40 0
-30 50 0
-20 50 0
-30 40 10
-20 40 10
-30 50 10
-20 50 10
-20 40 0
-10 40 0
-20 50 0
-10 50 0
-20 40 10
-10 40 10
-20 50 10
-10 50 10
-10 40 0
0 40 0
-10 50 0
0 50 0
-10 40 10
0 40 10
-10 50 10
0 50 10
0 40 0
10 40 0
0 50 0
10 50 0
0 40 10
10 40 10
0 50 10
10 50 10
10 40 0
20 40 0
10 50 0
20 50 0
10 40 10
20 40 10
10 50 10
20 50 10
20 40 0
30 40 0
20 50 0
30 50 0
20 40 10
30 40 10
20 50 10
30 50 10
30 40 0
40 40 0
30 50 0
40 50 0
30 40 10
40 40 10
30 50 10
40 50 10
40 40 0
50 40 0
40 50 0
50 50 0
40 40 10
50 40 10
40 50 10
50 50 10
-50 -50 10
-40 -50 10
-50 -40 10
-40 -40 10
-50 -50 20
-40 -50 20
-50 -40 20
-40 -40 20
-40 -50 10
-30 -50 10
-40 -40 10
-30 -40 10
-40 -50 20
-30 -50 20
-40 -40 20
-30 -40 20
-30 -50 10
-20 -50 10
-30 -40 10
-20 -40 10
-30 -50 20
-20 -50 20
-30 -40 20
-20 -40 20
-20 -50 10
-10 -50 10
-20 -40 10
-10 -40 10
-20 -50 20
-10 -50 20
-20 -40 20
-10 -40 20
-10 -50 10
0 -50 10
-10 -40 10
0 -40 10
-10 -50 20
0 -50 20
-10 -40 20
0 -40 20
0 -50 10
10 -50 10
0 -40 10
10 -40 10
0 -50 20
10 -50 20
0 -40 20
10 -40 20
10 -50 10
20 -50 10
10 -40 10
20 -40 10
10 -50 20
20 -50 20
10 -40 20
20 -40 20
20 -50 10
30 -50 10
20 -40 10
30 -40 10
20 -50 20
30 -50 20
20 -40 20
30 -40 20
30 -50 10
40 -50 10
30 -40 10
40 -40 10
30 -50 20
40 -50 20
30 -40 20
40 -40 20
40 -50 10
50 -50 10
40 -40 10
50 -40 10
40 -50 20
50 -50 20
40 -40 20
50 -40 20
-50 -40 10
-40 -40 10
-50 -30 10
-40 -30 10
-50 -40 20
-40 -40 20
-50 -30 20
-40 -30 20
-40 -40 10
-30 -40 10
-40 -30 10
-30 -30 10
-40 -40 20
-30 -40 20
-40 -30 20
-30 -30 20
-30 -40 10
-20 -40 10
-30 -30 10
-20 -30 10
-30 -40 20
-20 -40 20
-30 -30 20
-20 -30 20
-20 -40 10
-10 -40 10
-20 -30 10
-10 -30 10
-20 -40 20
-10 -40 20
-20 -30 20
-10 -30 20
-10 -40 10
0 -40 10
-10 -30 10
0 -30 10
-10 -40 20
0 -40 20
-10 -30 20
0 -30 20
0 -40 10
10 -40 10
0 -30 10
10 -30 10
0 -40 20
10 -40 20
0 -30 20
10 -30 20
10 -40 10
20 -40 10
10 -30 10
20 -30 10
10 -40 20
20 -40 20
10 -30 20
20 -30 20
20 -40 10
30 -40 10
20 -30 10
30 -30 10
20 -40 20
30 -40 20
20 -30 20
30 -30 20
30 -40 10
40 -40 10
30 -30 10
40 -30 10
30 -40 20
40 -40 20
30 -30 20
40 -30 20
40 -40 10
50 -40 10
40 -30 10
50 -30 10
40 -40 20
50 -40 20
40 -30 20
50 -30 20
-50 -30 10
-40 -30 10
-50 -20 10
-40 -20 10
-50 -30 20
-40 -30 20
-50 -20 20
-40 -20 20
-40 -30 10
-30 -30 10
-40 -20 10
-30 -20 10
-40 -30 20
-30 -30 20
-40 -20 20
-30 -20 20
-30 -30 10
-20 -30 10
-30 -20 10
-20 -20 10
-30 -30 20
-20 -30 20
-30 -20 20
-20 -20 20
-20 -30 10
-10 -30 10
-20 -20 10
-10 -20 10
-20 -30 20
-10 -30 20
-20 -20 20
-10 -20 20
-10 -30 10
0 -30 10
-10 -20 10
0 -20 10
-10 -30 20
0 -30 20
-10 -20 20
0 -20 20
0 -30 10
10 -30 10
0 -20 10
10 -20 10
0 -30 20
10 -30 20
0 -20 20
10 -20 20
10 -30 10
20 -30 10
10 -20 10
20 -20 10
10 -30 20
20 -30 20
10 -20 20
20 -20 20
20 -30 10
30 -30 10
20 -20 10
30 -20 10
20 -30 20
30 -30 20
20 -20 20
30 -20 20
30 -30 10
40 -30 10
30 -20 10
40 -20 10
30 -30 20
40 -30 20
30 -20 20
40 -20 20
40 -30 10
50 -30 10
40 -20 10
50 -20 10
40 -30 20
50 -30 20
40 -20 20
50 -20 20
-50 -20 10
-40 -20 10
-50 -10 10
-40 -10 10
-50 -20 20
-40 -20 20
-50 -10 20
-40 -10 20
-40 -20 10
-30 -20 10
-40 -10 10
-30 -10 10
-40 -20 20
-30 -20 20
-40 -10 20
-30 -10 20
-30 -20 10
-20 -20 10
-30 -10 10
-20 -10 10
-30 -20 20
-20 -20 20
-30 -10 20
-20 -10 20
-20 -20 10
-10 -20 10
-20 -10 10
-10 -10 10
-20 -20 20
-10 -20 20
-20 -10 20
-10 -10 20
-10 -20 10
0 -20 10
-10 -10 10
0 -10 10
-10 -20 20
0 -20 20
-10 -10 20
0 -10 20
0 -20 10
10 -20 10
0 -10 10
10 -10 10
0 -20 20
10 -20 20
0 -10 20
10 -10 20
10 -20 10
20 -20 10
10 -10 10
20 -10 10
10 -20 20
20 -20 20
10 -10 20
20 -10 20
20 -20 10
30 -20 10
[...]
  <PointData Scalars="scalars">
    <DataArray type="Float32" Name="u" format="ascii">
0.184938 0.204326 0.197723 0.221155 0.183744 0.202708 0.196263 0.219112 0.204326 0.225929 0.221155 0.24935 0.202708 0.22375 0.219112 0.246437 0.225929 0.249526 0.24935 0.282466 0.22375 0.246628 0.246437 0.278262 0.249526 0.273419 0.282466 0.319189 0.246628 0.269691 0.278262 0.313261 0.273419 0.29457 0.319189 0.35502 0.269691 0.290061 0.313261 0.347109 0.29457 0.309299 0.35502 0.382178 0.290061 0.304232 0.347109 0.372631 0.309299 0.314684 0.382178 0.392461 0.304232 0.309396 0.372631 0.382344 0.314684 0.309512 0.392461 0.382555 0.309396 0.304434 0.382344 0.372997 0.309512 0.294735 0.382555 0.355526 0.304434 0.290235 0.372997 0.34759 0.294735 0.271794 0.355526 0.319535 0.290235 0.268238 0.34759 0.313683 0.197723 0.221155 0.209077 0.237448 0.196263 0.219112 0.207363 0.234941 0.221155 0.24935 0.237448 0.273395 0.219112 0.246437 0.234941 0.269592 0.24935 0.282466 0.273395 0.319267 0.246437 0.278262 0.269592 0.313315 0.282466 0.319189 0.319267 0.3771 0.278262 0.313261 0.313315 0.367303 0.319189 0.35502 0.3771 0.441847 0.313261 0.347109 0.367303 0.427078 0.35502 0.382178 0.441847 0.496437 0.347109 0.372631 0.427078 0.476769 0.382178 0.392461 0.496437 0.519396 0.372631 0.382344 0.476769 0.496907 0.392461 0.382555 0.519396 0.497329 0.382344 0.372997 0.496907 0.477507 0.382555 0.355526 0.497329 0.443304 0.372997 0.34759 0.477507 0.428472 0.355526 0.319535 0.443304 0.379395 0.34759 0.313683 0.428472 0.369431 0.209077 0.237448 0.218349 0.251375 0.207363 0.234941 0.216408 0.248415 0.237448 0.273395 0.251375 0.295176 0.234941 0.269592 0.248415 0.29049 0.273395 0.319267 0.295176 0.355641 0.269592 0.313315 0.29049 0.347521 0.319267 0.3771 0.355641 0.441859 0.313315 0.367303 0.347521 0.427161 0.3771 0.441847 0.441859 0.569124 0.367303 0.427078 0.427161 0.536834 0.441847 0.496437 0.569124 0.70369 0.427078 0.476769 0.536834 0.653559 0.496437 0.519396 0.70369 0.755602 0.476769 0.496907 0.653559 0.704142 0.519396 0.497329 0.755602 0.70542 0.496907 0.477507 0.704142 0.65578 0.497329 0.443304 0.70542 0.571934 0.477507 0.428472 0.65578 0.539348 0.443304 0.379395 0.571934 0.444784 0.428472 0.369431 0.539348 0.430354 0.218349 0.251375 0.224452 0.261013 0.216408 0.248415 0.222368 0.257666 0.251375 0.295176 0.261013 0.311222 0.248415 0.29049 0.257666 0.305525 0.295176 0.355641 0.311222 0.383263 0.29049 0.347521 0.305525 0.373792 0.355641 0.441859 0.383263 0.498631 0.347521 0.427161 0.373792 0.477963 0.441859 0.569124 0.498631 0.698944 0.427161 0.536834 0.477963 0.652995 0.569124 0.70369 0.698944 1.14536 0.536834 0.653559 0.652995 0.94484 0.70369 0.755602 1.14536 1.5331 0.653559 0.704142 0.94484 1.16361 0.755602 0.70542 1.5331 1.16241 0.704142 0.65578 1.16361 0.949275 0.70542 0.571934 1.16241 0.705339 0.65578 0.539348 0.949275 0.656052 0.571934 0.444784 0.705339 0.496313 0.539348 0.430354 0.656052 0.477973 0.224452 0.261013 0.226626 0.26432 0.222368 0.257666 0.224444 0.261008 0.261013 0.311222 0.26432 0.318875 0.257666 0.305525 0.261008 0.311216 1.16241 0.705339 1.52919 0.757167 0.949275 0.656052 1.16297 0.705326 0.705339 0.496313 0.757167 0.516827 0.656052 0.477973 0.705326 0.496254 0.226626 0.26432 0.224452 0.261014 0.224444 0.261008 0.222368 0.257666 0.26432 0.318875 0.261014 0.311222 0.261008 0.311216 0.257666 0.305525 1.52919 0.757167 1.16251 0.705335 1.16297 0.705326 0.949238 0.656059 0.757167 0.516827 0.705335 0.496315 0.705326 0.496254 0.656059 0.477973 0.224452 0.261014 0.218349 0.251375 0.222368 0.257666 0.216408 0.248415 0.261014 0.311222 0.251375 0.295176 0.257666 0.305525 0.248415 0.29049 0.311222 0.383263 0.295176 0.355641 0.305525 0.373793 0.29049 0.347521 0.383263 0.498633 0.355641 0.44186 0.373793 0.477963 0.347521 0.427162 0.498633 0.698942 0.44186 0.569129 0.477963 0.653001 0.427162 0.536835 0.698942 1.14544 0.569129 0.703695 0.653001 0.944814 0.536835 0.653563 1.14544 1.53329 0.703695 0.755597 0.944814 1.1635 0.653563 0.704156 1.53329 1.16251 0.755597 0.705423 1.1635 0.949238 0.704156 0.655786 1.16251 0.705335 0.705423 0.571941 0.949238 0.656059 0.655786 0.539348 0.705335 0.496315 0.571941 0.444785 0.656059 0.477973 0.539348 0.430355 0.218349 0.251375 0.209077 0.237448 0.216408 0.248415 0.207363 0.234941 0.251375 0.295176 0.237448 0.273395 0.248415 0.29049 0.234941 0.269593 0.295176 0.355641 0.273395 0.319268 0.29049 0.347521 0.269593 0.313316 0.355641 0.44186 0.319268 0.377101 0.347521 0.427162 0.313316 0.367303 0.44186 0.569129 0.377101 0.441848 0.427162 0.536835 0.367303 0.427079 0.569129 0.703695 0.441848 0.496438 0.536835 0.653563 0.427079 0.47677 0.703695 0.755597 0.496438 0.519399 0.653563 0.704156 0.47677 0.496907 0.755597 0.705423 0.519399 0.497331 0.704156 0.655786 0.496907 0.477508 0.705423 0.571941 0.497331 0.443305 0.655786 0.539348 0.477508 0.428473 0.571941 0.444785 0.443305 0.379397 0.539348 0.430355 0.428473 0.369432 0.209077 0.237448 0.197723 0.221156 0.207363 0.234941 0.196263 0.219112 0.237448 0.273395 0.221156 0.24935 0.234941 0.269593 0.219112 0.246437 0.273395 0.319268 0.24935 0.282467 0.269593 0.313316 0.246437 0.278262 0.319268 0.377101 0.282467 0.319189 0.313316 0.367303 0.278262 0.313261 0.377101 0.441848 0.319189 0.35502 0.367303 0.427079 0.313261 0.347109 0.441848 0.496438 0.35502 0.382179 0.427079 0.47677 0.347109 0.372632 0.496438 0.519399 0.382179 0.392462 0.47677 0.496907 0.372632 0.382345 0.519399 0.497331 0.392462 0.382556 0.496907 0.477508 0.382345 0.372998 0.497331 0.443305 0.382556 0.355527 0.477508 0.428473 0.372998 0.34759 0.443305 0.379397 0.355527 0.319536 0.428473 0.369432 0.34759 0.313684 0.197723 0.221156 0.184938 0.204326 0.196263 0.219112 0.183744 0.202708 0.221156 0.24935 0.204326 0.225929 0.219112 0.246437 0.202708 0.22375 0.24935 0.282467 0.225929 0.249526 0.246437 0.278262 0.22375 0.246628 0.282467 0.319189 0.249526 0.273419 0.278262 0.313261 0.246628 0.269692 0.319189 0.35502 0.273419 0.29457 0.313261 0.347109 0.269692 0.290062 0.35502 0.382179 0.29457 0.309299 0.347109 0.372632 0.290062 0.304233 0.382179 0.392462 0.309299 0.314685 0.372632 0.382345 0.304233 0.309396 0.392462 0.382556 0.314685 0.309513 0.382345 0.372998 0.309396 0.304434 0.382556 0.355527 0.309513 0.294735 0.372998 0.34759 0.304434 0.290235 0.355527 0.319536 0.294735 0.271794 0.34759 0.313684 0.290235 0.268239 0.183744 0.202708 0.196263 0.219112 0.180284 0.19806 0.192053 0.213283 0.202708 0.22375 0.219112 0.246437 0.19806 0.217548 0.213283 0.238231 0.22375 0.246628 0.246437 0.278262 0.217548 0.238445 0.238231 0.266629 0.246628 0.269691 0.278262 0.313261 0.238445 0.259253 0.266629 0.297073 0.269691 0.290061 0.313261 0.347109 0.259253 0.277464 0.297073 0.325883 0.290061 0.304232 0.347109 0.372631 0.277464 0.290094 0.325883 0.347195 0.304232 0.309396 0.372631 0.382344 0.290094 0.294685 0.347195 0.355256 0.309396 0.304434 0.382344 0.372997 0.294685 0.290268 0.355256 0.347493 0.304434 0.290235 0.372997 0.34759 0.290268 0.277637 0.347493 0.326298 0.290235 0.268238 0.34759 0.313683 0.277637 0.258195 0.326298 0.297568 0.196263 0.219112 0.207363 0.234941 0.192053 0.213283 0.202444 0.227834 0.219112 0.246437 0.234941 0.269592 0.213283 0.238231 0.227834 0.259017 0.246437 0.278262 0.269592 0.313315 0.238231 0.266629 0.259017 0.297055 0.278262 0.313261 0.313315 0.367303 0.266629 0.297073 0.297055 0.341773 0.313261 0.347109 0.367303 0.427078 0.297073 0.325883 0.341773 0.38891 0.347109 0.372631 0.427078 0.476769 0.325883 0.347195 0.38891 0.427262 0.372631 0.382344 0.476769 0.496907 0.347195 0.355256 0.427262 0.442338 0.382344 0.372997 0.496907 0.477507 0.355256 0.347493 0.442338 0.427887 0.372997 0.34759 0.477507 0.428472 0.347493 0.326298 0.427887 0.390048 0.34759 0.313683 0.428472 0.369431 0.326298 0.297568 0.390048 0.34352 0.207363 0.234941 0.216408 0.248415 0.202444 0.227834 0.210863 0.240096 0.234941 0.269592 0.248415 0.29049 0.227834 0.259017 0.240096 0.27748 0.269592 0.313315 0.29049 0.347521 0.259017 0.297055 0.27748 0.326017 0.313315 0.367303 0.347521 0.427161 0.297055 0.341773 0.326017 0.388966 0.367303 0.427078 0.427161 0.536834 0.341773 0.38891 0.388966 0.465129 0.427078 0.476769 0.536834 0.653559 0.38891 0.427262 0.465129 0.537667 0.476769 0.496907 0.653559 0.704142 0.427262 0.442338 0.537667 0.57084 0.496907 0.477507 0.704142 0.65578 0.442338 0.427887 0.57084 0.538729 0.477507 0.428472 0.65578 0.539348 0.427887 0.390048 0.538729 0.466884 0.428472 0.369431 0.539348 0.430354 0.390048 0.34352 0.466884 0.391837 0.216408 0.248415 0.222368 0.257666 0.210863 0.240096 0.21639 0.2484 0.248415 0.29049 0.257666 0.305525 0.240096 0.27748 0.2484 0.290469 0.29049 0.347521 0.305525 0.373792 0.27748 0.326017 0.290469 0.347499 0.347521 0.427161 0.373792 0.477963 0.326017 0.388966 0.347499 0.427152 0.427161 0.536834 0.477963 0.652995 0.388966 0.465129 0.427152 0.536873 0.536834 0.653559 0.652995 0.94484 0.465129 0.537667 0.536873 0.653715 0.653559 0.704142 0.94484 1.16361 0.537667 0.57084 0.653715 0.704383 0.704142 0.65578 1.16361 0.949275 0.57084 0.538729 0.704383 0.655926 0.65578 0.539348 0.949275 0.656052 0.538729 0.466884 0.655926 0.539385 0.539348 0.430354 0.656052 0.477973 0.466884 0.391837 0.539385 0.430288 0.222368 0.257666 0.224444 0.261008 0.21639 0.2484 0.218323 0.251355 0.257666 0.305525 0.261008 0.311216 0.2484 0.290469 0.251355 0.295149 0.305525 0.373792 0.311216 0.383256 0.290469 0.347499 0.295149 0.355614 0.373792 0.477963 0.383256 0.498637 0.347499 0.427152 0.355614 0.441847 0.477963 0.652995 0.498637 0.698909 0.427152 0.536873 0.441847 0.569209 0.652995 0.94484 0.698909 1.14624 0.536873 0.653715 0.569209 0.703906 0.94484 1.16361 1.14624 1.53552 0.653715 0.704383 0.703906 0.755769 1.16361 0.949275 1.53552 1.16297 0.704383 0.655926 0.755769 0.705646 0.949275 0.656052 1.16297 0.705326 0.655926 0.539385 0.705646 0.571998 0.656052 0.477973 0.705326 0.496254 0.539385 0.430288 0.571998 0.444666 0.224444 0.261008 0.222368 0.257666 0.218323 0.251355 0.21639 0.2484 0.261008 0.311216 0.257666 0.305525 0.251355 0.295149 0.2484 0.290469 0.311216 0.383256 0.305525 0.373793 0.295149 0.355614 0.290469 0.347499 0.383256 0.498637 0.373793 0.477963 0.355614 0.441847 0.347499 0.427152 0.498637 0.698909 0.477963 0.653001 0.441847 0.569209 0.427152 0.536871 0.698909 1.14624 0.653001 0.944814 0.569209 0.703906 0.536871 0.653708 1.14624 1.53552 0.944814 1.1635 0.703906 0.755769 0.653708 0.704379 1.53552 1.16297 1.1635 0.949238 0.755769 0.705646 0.704379 0.655919 1.16297 0.705326 0.949238 0.656059 0.705646 0.571998 0.655919 0.539382 0.705326 0.496254 0.656059 0.477973 0.571998 0.444666 0.539382 0.430289 0.222368 0.257666 0.216408 0.248415 0.21639 0.2484 0.210863 0.240096 0.257666 0.305525 0.248415 0.29049 0.2484 0.290469 0.240096 0.27748 0.305525 0.373793 0.29049 0.347521 0.290469 0.347499 0.27748 0.326017 0.373793 0.477963 0.347521 0.427162 0.347499 0.427152 0.326017 0.388967 0.477963 0.653001 0.427162 0.536835 0.427152 0.536871 0.388967 0.465128 0.653001 0.944814 0.536835 0.653563 0.536871 0.653708 0.465128 0.537663 0.944814 1.1635 0.653563 0.704156 0.653708 0.704379 0.537663 0.570831 1.1635 0.949238 0.704156 0.655786 0.704379 0.655919 0.570831 0.538724 0.949238 0.656059 0.655786 0.539348 0.655919 0.539382 0.538724 0.466883 0.656059 0.477973 0.539348 0.430355 0.539382 0.430289 0.466883 0.391837 0.216408 0.248415 0.207363 0.234941 0.210863 0.240096 0.202445 0.227834 0.248415 0.29049 0.234941 0.269593 0.240096 0.27748 0.227834 0.259017 0.29049 0.347521 0.269593 0.313316 0.27748 0.326017 0.259017 0.297055 0.347521 0.427162 0.313316 0.367303 0.326017 0.388967 0.297055 0.341773 0.427162 0.536835 0.367303 0.427079 0.388967 0.465128 0.341773 0.388909 0.536835 0.653563 0.427079 0.47677 0.465128 0.537663 0.388909 0.427262 0.653563 0.704156 0.47677 0.496907 0.537663 0.570831 0.427262 0.442338 0.704156 0.655786 0.496907 0.477508 0.570831 0.538724 0.442338 0.427887 0.655786 0.539348 0.477508 0.428473 0.538724 0.466883 0.427887 0.390047 0.539348 0.430355 0.428473 0.369432 0.466883 0.391837 0.390047 0.34352 0.207363 0.234941 0.196263 0.219112 0.202445 0.227834 0.192053 0.213283 0.234941 0.269593 0.219112 0.246437 0.227834 0.259017 0.213283 0.238231 0.269593 0.313316 0.246437 0.278262 0.259017 0.297055 0.238231 0.266629 0.313316 0.367303 0.278262 0.313261 0.297055 0.341773 0.266629 0.297073 0.367303 0.427079 0.313261 0.347109 0.341773 0.388909 0.297073 0.325883 0.427079 0.47677 0.347109 0.372632 0.388909 0.427262 0.325883 0.347196 0.47677 0.496907 0.372632 0.382345 0.427262 0.442338 0.347196 0.355256 0.496907 0.477508 0.382345 0.372998 0.442338 0.427887 0.355256 0.347493 0.477508 0.428473 0.372998 0.34759 0.427887 0.390047 0.347493 0.326298 0.428473 0.369432 0.34759 0.313684 0.390047 0.34352 0.326298 0.297568 0.196263 0.219112 0.183744 0.202708 0.192053 0.213283 0.180284 0.19806 0.219112 0.246437 0.202708 0.22375 0.213283 0.238231 0.19806 0.217548 0.246437 0.278262 0.22375 0.246628 0.238231 0.266629 0.217548 0.238445 0.278262 0.313261 0.246628 0.269692 0.266629 0.297073 0.238445 0.259253 0.313261 0.347109 0.269692 0.290062 0.297073 0.325883 0.259253 0.277465 0.347109 0.372632 0.290062 0.304233 0.325883 0.347196 0.277465 0.290094 0.372632 0.382345 0.304233 0.309396 0.347196 0.355256 0.290094 0.294685 0.382345 0.372998 0.309396 0.304434 0.355256 0.347493 0.294685 0.290269 0.372998 0.34759 0.304434 0.290235 0.347493 0.326298 0.290269 0.277637 0.34759 0.313684 0.290235 0.268239 0.326298 0.297568 0.277637 0.258195 0.180284 0.19806 0.192053 0.213283 0.174892 0.190931 0.185558 0.204466 0.19806 0.217548 0.213283 0.238231 0.190931 0.208195 0.204466 0.226109 0.217548 0.238445 0.238231 0.266629 0.208195 0.226317 0.226109 0.249946 0.238445 0.259253 0.266629 0.297073 0.226317 0.244001 0.249946 0.274566 0.259253 0.277464 0.297073 0.325883 0.244001 0.25924 0.274566 0.297075 0.277464 0.290094 0.325883 0.347195 0.25924 0.269701 0.297075 0.31332 0.290094 0.294685 0.347195 0.355256 0.269701 0.273488 0.31332 0.319351 0.294685 0.290268 0.355256 0.347493 0.273488 0.269826 0.319351 0.313531 0.290268 0.277637 0.347493 0.326298 0.269826 0.259374 0.313531 0.297367 0.277637 0.258195 0.326298 0.297568 0.259374 0.2433 0.297367 0.274979 0.192053 0.213283 0.202444 0.227834 0.185558 0.204466 0.194913 0.217217 0.213283 0.238231 0.227834 0.259017 0.204466 0.226109 0.217217 0.243698 0.238231 0.266629 0.259017 0.297055 0.226109 0.249946 0.243698 0.274491 0.266629 0.297073 0.297055 0.341773 0.249946 0.274566 0.274491 0.308451 0.297073 0.325883 0.341773 0.38891 0.274566 0.297075 0.308451 0.341787 0.325883 0.347195 0.38891 0.427262 0.297075 0.31332 0.341787 0.367449 0.347195 0.355256 0.427262 0.442338 0.31332 0.319351 0.367449 0.377441 0.355256 0.347493 0.442338 0.427887 0.319351 0.313531 0.377441 0.367837 0.347493 0.326298 0.427887 0.390048 0.313531 0.297367 0.367837 0.342539 0.326298 0.297568 0.390048 0.34352 0.297367 0.274979 0.342539 0.30959 0.202444 0.227834 0.210863 0.240096 0.194913 0.217217 0.202434 0.227815 0.227834 0.259017 0.240096 0.27748 0.217217 0.243698 0.227815 0.258976 0.259017 0.297055 0.27748 0.326017 0.243698 0.274491 0.258976 0.296999 0.297055 0.341773 0.326017 0.388966 0.274491 0.308451 0.296999 0.341727 0.341773 0.38891 0.388966 0.465129 0.308451 0.341787 0.341727 0.388899 0.38891 0.427262 0.465129 0.537667 0.341787 0.367449 0.388899 0.427295 0.427262 0.442338 0.537667 0.57084 0.367449 0.377441 0.427295 0.442393 0.442338 0.427887 0.57084 0.538729 0.377441 0.367837 0.442393 0.427939 0.427887 0.390048 0.538729 0.466884 0.367837 0.342539 0.427939 0.390074 0.390048 0.34352 0.466884 0.391837 0.342539 0.30959 0.390074 0.343516 0.210863 0.240096 0.21639 0.2484 0.202434 0.227815 0.207339 0.234909 0.240096 0.27748 0.2484 0.290469 0.227815 0.258976 0.234909 0.269534 0.27748 0.326017 0.290469 0.347499 0.258976 0.296999 0.269534 0.313241 0.326017 0.388966 0.347499 0.427152 0.296999 0.341727 0.313241 0.367256 0.388966 0.465129 0.427152 0.536873 0.341727 0.388899 0.367256 0.427102 0.465129 0.537667 0.536873 0.653715 0.388899 0.427295 0.427102 0.476869 0.537667 0.57084 0.653715 0.704383 0.427295 0.442393 0.476869 0.497039 0.57084 0.538729 0.704383 0.655926 0.442393 0.427939 0.497039 0.477637 0.538729 0.466884 0.655926 0.539385 0.427939 0.390074 0.477637 0.428545 0.466884 0.391837 0.539385 0.430288 0.390074 0.343516 0.428545 0.36941 0.21639 0.2484 0.218323 0.251355 0.207339 0.234909 0.209046 0.237412 0.2484 0.290469 0.251355 0.295149 0.234909 0.269534 0.237412 0.273331 0.290469 0.347499 0.295149 0.355614 0.269534 0.313241 0.273331 0.319189 0.347499 0.427152 0.355614 0.441847 0.313241 0.367256 0.319189 0.377059 0.427152 0.536873 0.441847 0.569209 0.367256 0.427102 0.377059 0.441889 0.536873 0.653715 0.569209 0.703906 0.427102 0.476869 0.441889 0.496568 0.653715 0.704383 0.703906 0.755769 0.476869 0.497039 0.496568 0.519586 0.704383 0.655926 0.755769 0.705646 0.497039 0.477637 0.519586 0.497492 0.655926 0.539385 0.705646 0.571998 0.477637 0.428545 0.497492 0.443397 0.539385 0.430288 0.571998 0.444666 0.428545 0.36941 0.443397 0.37936 0.218323 0.251355 0.21639 0.2484 0.209046 0.237412 0.207339 0.234909 0.251355 0.295149 0.2484 0.290469 0.237412 0.273331 0.234909 0.269534 0.295149 0.355614 0.290469 0.347499 0.273331 0.319189 0.269534 0.313241 0.355614 0.441847 0.347499 0.427152 0.319189 0.377059 0.313241 0.367255 0.441847 0.569209 0.427152 0.536871 0.377059 0.441889 0.367255 0.427101 0.569209 0.703906 0.536871 0.653708 0.441889 0.496568 0.427101 0.476867 0.703906 0.755769 0.653708 0.704379 0.496568 0.519586 0.476867 0.497037 0.755769 0.705646 0.704379 0.655919 0.519586 0.497492 0.497037 0.477636 0.705646 0.571998 0.655919 0.539382 0.497492 0.443397 0.477636 0.428544 0.571998 0.444666 0.539382 0.430289 0.443397 0.37936 0.428544 0.369409 0.21639 0.2484 0.210863 0.240096 0.207339 0.234909 0.202434 0.227815 0.2484 0.290469 0.240096 0.27748 0.234909 0.269534 0.227815 0.258976 0.290469 0.347499 0.27748 0.326017 0.269534 0.313241 0.258976 0.296999 0.347499 0.427152 0.326017 0.388967 0.313241 0.367255 0.296999 0.341727 0.427152 0.536871 0.388967 0.465128 0.367255 0.427101 0.341727 0.388898 0.536871 0.653708 0.465128 0.537663 0.427101 0.476867 0.388898 0.427293 0.653708 0.704379 0.537663 0.570831 0.476867 0.497037 0.427293 0.442391 0.704379 0.655919 0.570831 0.538724 0.497037 0.477636 0.442391 0.427937 0.655919 0.539382 0.538724 0.466883 0.477636 0.428544 0.427937 0.390073 0.539382 0.430289 0.466883 0.391837 0.428544 0.369409 0.390073 0.343516 0.210863 0.240096 0.202445 0.227834 0.202434 0.227815 0.194913 0.217217 0.240096 0.27748 0.227834 0.259017 0.227815 0.258976 0.217217 0.243698 0.27748 0.326017 0.259017 0.297055 0.258976 0.296999 0.243698 0.274491 0.326017 0.388967 0.297055 0.341773 0.296999 0.341727 0.274491 0.308451 0.388967 0.465128 0.341773 0.388909 0.341727 0.388898 0.308451 0.341787 0.465128 0.537663 0.388909 0.427262 0.388898 0.427293 0.341787 0.367448 0.537663 0.570831 0.427262 0.442338 0.427293 0.442391 0.367448 0.377439 0.570831 0.538724 0.442338 0.427887 0.442391 0.427937 0.377439 0.367836 0.538724 0.466883 0.427887 0.390047 0.427937 0.390073 0.367836 0.342538 0.466883 0.391837 0.390047 0.34352 0.390073 0.343516 0.342538 0.309589 0.202445 0.227834 0.192053 0.213283 0.194913 0.217217 0.185558 0.204466 0.227834 0.259017 0.213283 0.238231 0.217217 0.243698 0.204466 0.226109 0.259017 0.297055 0.238231 0.266629 0.243698 0.274491 0.226109 0.249946 0.297055 0.341773 0.266629 0.297073 0.274491 0.308451 0.249946 0.274566 0.341773 0.388909 0.297073 0.325883 0.308451 0.341787 0.274566 0.297074 0.388909 0.427262 0.325883 0.347196 0.341787 0.367448 0.297074 0.31332 0.427262 0.442338 0.347196 0.355256 0.367448 0.377439 0.31332 0.319351 0.442338 0.427887 0.355256 0.347493 0.377439 0.367836 0.319351 0.313531 0.427887 0.390047 0.347493 0.326298 0.367836 0.342538 0.313531 0.297367 0.390047 0.34352 0.326298 0.297568 0.342538 0.309589 0.297367 0.274979 0.192053 0.213283 0.180284 0.19806 0.185558 0.204466 0.174892 0.190931 0.213283 0.238231 0.19806 0.217548 0.204466 0.226109 0.190931 0.208195 0.238231 0.26