<?xml version="1.0" ?> 
<!-- 
# vtk DataFile Version 3.0
#This file was generated by the deal.II library on 16:47:31 at 2019/11/27
-->
<VTKFile type="UnstructuredGrid" version="0.1" byte_order="LittleEndian">
<UnstructuredGrid>
<Piece NumberOfPoints="47816" NumberOfCells="5977" >
  <Points>
    <DataArray type="Float32" NumberOfComponents="3" format="ascii">
-50 -50 0
-40 -50 0
-50 -40 0
-40 -40 0
-50 -50 10
-40 -50 10
-50 -40 10
-40 -40 10
-40 -50 0
-30 -50 0
-40 -40 0
-30 -40 0
-40 -50 10
-30 -50 10
-40 -40 10
-30 -40 10
-30 -50 0
-20 -50 0
-30 -40 0
-20 -40 0
-30 -50 10
-20 -50 10
-30 -40 10
-20 -40 10
-20 -50 0
-10 -50 0
-20 -40 0
-10 -40 0
-20 -50 10
-10 -50 10
-20 -40 10
-10 -40 10
-10 -50 0
0 -50 0
-10 -40 0
0 -40 0
-10 -50 10
0 -50 10
-10 -40 10
0 -40 10
0 -50 0
10 -50 0
0 -40 0
10 -40 0
0 -50 10
10 -50 10
0 -40 10
10 -40 10
10 -50 0
20 -50 0
10 -40 0
20 -40 0
10 -50 10
20 -50 10
10 -40 10
20 -40 10
20 -50 0
30 -50 0
20 -40 0
30 -40 0
20 -50 10
30 -50 10
20 -40 10
30 -40 10
30 -50 0
40 -50 0
30 -40 0
40 -40 0
30 -50 10
40 -50 10
30 -40 10
40 -40 10
40 -50 0
50 -50 0
40 -40 0
50 -40 0
40 -50 10
50 -50 10
40 -40 10
50 -40 10
-50 -40 0
-40 -40 0
-50 -30 0
-40 -30 0
-50 -40 10
-40 -40 10
-50 -30 10
-40 -30 10
-40 -40 0
-30 -40 0
-40 -30 0
-30 -30 0
-40 -40 10
-30 -40 10
-40 -30 10
-30 -30 10
-30 -40 0
-20 -40 0
-30 -30 0
-20 -30 0
-30 -40 10
-20 -40 10
-30 -30 10
-20 -30 10
-20 -40 0
-10 -40 0
-20 -30 0
-10 -30 0
-20 -40 10
-10 -40 10
-20 -30 10
-10 -30 10
-10 -40 0
0 -40 0
-10 -30 0
0 -30 0
-10 -40 10
0 -40 10
-10 -30 10
0 -30 10
0 -40 0
10 -40 0
0 -30 0
10 -30 0
0 -40 10
10 -40 10
0 -30 10
10 -30 10
10 -40 0
20 -40 0
10 -30 0
20 -30 0
10 -40 10
20 -40 10
10 -30 10
20 -30 10
20 -40 0
30 -40 0
20 -30 0
30 -30 0
20 -40 10
30 -40 10
20 -30 10
30 -30 10
30 -40 0
40 -40 0
30 -30 0
40 -30 0
30 -40 10
40 -40 10
30 -30 10
40 -30 10
40 -40 0
50 -40 0
40 -30 0
50 -30 0
40 -40 10
50 -40 10
40 -30 10
50 -30 10
-50 -30 0
-40 -30 0
-50 -20 0
-40 -20 0
-50 -30 10
-40 -30 10
-50 -20 10
-40 -20 10
-40 -30 0
-30 -30 0
-40 -20 0
-30 -20 0
-40 -30 10
-30 -30 10
-40 -20 10
-30 -20 10
-30 -30 0
-20 -30 0
-30 -20 0
-20 -20 0
-30 -30 10
-20 -30 10
-30 -20 10
-20 -20 10
-20 -30 0
-10 -30 0
-20 -20 0
-10 -20 0
-20 -30 10
-10 -30 10
-20 -20 10
-10 -20 10
-10 -30 0
0 -30 0
-10 -20 0
0 -20 0
-10 -30 10
0 -30 10
-10 -20 10
0 -20 10
40 -30 0
50 -30 0
40 -20 0
50 -20 0
40 -30 10
50 -30 10
40 -20 10
50 -20 10
-50 -20 0
-40 -20 0
-50 -10 0
-40 -10 0
-50 -20 10
-40 -20 10
-50 -10 10
-40 -10 10
-40 -20 0
-30 -20 0
-40 -10 0
-30 -10 0
-40 -20 10
-30 -20 10
-40 -10 10
-30 -10 10
-30 -20 0
-20 -20 0
-30 -10 0
-20 -10 0
-30 -20 10
-20 -20 10
-30 -10 10
-20 -10 10
-20 -20 0
-10 -20 0
-20 -10 0
-10 -10 0
-20 -20 10
-10 -20 10
-20 -10 10
-10 -10 10
-50 -10 0
-40 -10 0
-50 0 0
-40 0 0
-50 -10 10
-40 -10 10
-50 0 10
-40 0 10
-40 -10 0
-30 -10 0
-40 0 0
-30 0 0
-40 -10 10
-30 -10 10
-40 0 10
-30 0 10
-50 0 0
-40 0 0
-50 10 0
-40 10 0
-50 0 10
-40 0 10
-50 10 10
-40 10 10
-40 0 0
-30 0 0
-40 10 0
-30 10 0
-40 0 10
-30 0 10
-40 10 10
-30 10 10
-50 10 0
-40 10 0
-50 20 0
-40 20 0
-50 10 10
-40 10 10
-50 20 10
-40 20 10
-40 10 0
-30 10 0
-40 20 0
-30 20 0
-40 10 10
-30 10 10
-40 20 10
-30 20 10
-30 10 0
-20 10 0
-30 20 0
-20 20 0
-30 10 10
-20 10 10
-30 20 10
-20 20 10
-20 10 0
-10 10 0
-20 20 0
-10 20 0
-20 10 10
-10 10 10
-20 20 10
-10 20 10
-50 20 0
-40 20 0
-50 30 0
-40 30 0
-50 20 10
-40 20 10
-50 30 10
-40 30 10
-40 20 0
-30 20 0
-40 30 0
-30 30 0
-40 20 10
-30 20 10
-40 30 10
-30 30 10
-30 20 0
-20 20 0
-30 30 0
-20 30 0
-30 20 10
-20 20 10
-30 30 10
-20 30 10
-20 20 0
-10 20 0
-20 30 0
-10 30 0
-20 20 10
-10 20 10
-20 30 10
-10 30 10
-10 20 0
0 20 0
-10 30 0
0 30 0
-10 20 10
0 20 10
-10 30 10
0 30 10
40 20 0
50 20 0
40 30 0
50 30 0
40 20 10
50 20 10
40 30 10
50 30 10
-50 30 0
-40 30 0
-50 40 0
-40 40 0
-50 30 10
-40 30 10
-50 40 10
-40 40 10
-40 30 0
-30 30 0
-40 40 0
-30 40 0
-40 30 10
-30 30 10
-40 40 10
-30 40 10
-30 30 0
-20 30 0
-30 40 0
-20 40 0
-30 30 10
-20 30 10
-30 40 10
-20 40 10
-20 30 0
-10 30 0
-20 40 0
-10 40 0
-20 30 10
-10 30 10
-20 40 10
-10 40 10
-10 30 0
0 30 0
-10 40 0
0 40 0
-10 30 10
0 30 10
-10 40 10
0 40 10
0 30 0
10 30 0
0 40 0
10 40 0
0 30 10
10 30 10
0 40 10
10 40 10
10 30 0
20 30 0
10 40 0
20 40 0
10 30 10
20 30 10
10 40 10
20 40 10
20 30 0
30 30 0
20 40 0
30 40 0
20 30 10
30 30 10
20 40 10
30 40 10
30 30 0
40 30 0
30 40 0
40 40 0
30 30 10
40 30 10
30 40 10
40 40 10
40 30 0
50 30 0
40 40 0
50 40 0
40 30 10
50 30 10
40 40 10
50 40 10
-50 40 0
-40 40 0
-50 50 0
-40 50 0
-50 40 10
-40 40 10
-50 50 10
-40 50 10
-40 40 0
-30 40 0
-40 50 0
-30 50 0
-40 40 10
-30 40 10
-40 50 10
-30 50 10
-30 40 0
-20 40 0
-30 50 0
-20 50 0
-30 40 10
-20 40 10
-30 50 10
-20 50 10
-20 40 0
-10 40 0
-20 50 0
-10 50 0
-20 40 10
-10 40 10
-20 50 10
-10 50 10
-10 40 0
0 40 0
-10 50 0
0 50 0
-10 40 10
0 40 10
-10 50 10
0 50 10
0 40 0
10 40 0
0 50 0
10 50 0
0 40 10
10 40 10
0 50 10
10 50 10
10 40 0
20 40 0
10 50 0
20 50 0
10 40 10
20 40 10
10 50 10
20 50 10
20 40 0
30 40 0
20 50 0
30 50 0
20 40 10
30 40 10
20 50 10
30 50 10
30 40 0
40 40 0
30 50 0
40 50 0
30 40 10
40 40 10
30 50 10
40 50 10
40 40 0
50 40 0
40 50 0
50 50 0
40 40 10
50 40 10
40 50 10
50 50 10
-50 -50 10
-40 -50 10
-50 -40 10
-40 -40 10
-50 -50 20
-40 -50 20
-50 -40 20
-40 -40 20
-40 -50 10
-30 -50 10
-40 -40 10
-30 -40 10
-40 -50 20
-30 -50 20
-40 -40 20
-30 -40 20
-30 -50 10
-20 -50 10
-30 -40 10
-20 -40 10
-30 -50 20
-20 -50 20
-30 -40 20
-20 -40 20
-20 -50 10
-10 -50 10
-20 -40 10
-10 -40 10
-20 -50 20
-10 -50 20
-20 -40 20
-10 -40 20
-10 -50 10
0 -50 10
-10 -40 10
0 -40 10
-10 -50 20
0 -50 20
-10 -40 20
0 -40 20
0 -50 10
10 -50 10
0 -40 10
10 -40 10
0 -50 20
10 -50 20
0 -40 20
10 -40 20
10 -50 10
20 -50 10
10 -40 10
20 -40 10
10 -50 20
20 -50 20
10 -40 20
20 -40 20
20 -50 10
30 -50 10
20 -40 10
30 -40 10
20 -50 20
30 -50 20
20 -40 20
30 -40 20
30 -50 10
40 -50 10
30 -40 10
40 -40 10
30 -50 20
40 -50 20
30 -40 20
40 -40 20
40 -50 10
50 -50 10
40 -40 10
50 -40 10
40 -50 20
50 -50 20
40 -40 20
50 -40 20
-50 -40 10
-40 -40 10
-50 -30 10
-40 -30 10
-50 -40 20
-40 -40 20
-50 -30 20
-40 -30 20
-40 -40 10
-30 -40 10
-40 -30 10
-30 -30 10
-40 -40 20
-30 -40 20
-40 -30 20
-30 -30 20
-30 -40 10
-20 -40 10
-30 -30 10
-20 -30 10
-30 -40 20
-20 -40 20
-30 -30 20
-20 -30 20
-20 -40 10
-10 -40 10
-20 -30 10
-10 -30 10
-20 -40 20
-10 -40 20
-20 -30 20
-10 -30 20
-10 -40 10
0 -40 10
-10 -30 10
0 -30 10
-10 -40 20
0 -40 20
-10 -30 20
0 -30 20
0 -40 10
10 -40 10
0 -30 10
10 -30 10
0 -40 20
10 -40 20
0 -30 20
10 -30 20
10 -40 10
20 -40 10
10 -30 10
20 -30 10
10 -40 20
20 -40 20
10 -30 20
20 -30 20
20 -40 10
30 -40 10
20 -30 10
30 -30 10
20 -40 20
30 -40 20
20 -30 20
30 -30 20
30 -40 10
40 -40 10
30 -30 10
40 -30 10
30 -40 20
40 -40 20
30 -30 20
40 -30 20
40 -40 10
50 -40 10
40 -30 10
50 -30 10
40 -40 20
50 -40 20
40 -30 20
50 -30 20
-50 -30 10
-40 -30 10
-50 -20 10
-40 -20 10
-50 -30 20
-40 -30 20
-50 -20 20
-40 -20 20
-40 -30 10
-30 -30 10
-40 -20 10
-30 -20 10
-40 -30 20
-30 -30 20
-40 -20 20
-30 -20 20
-30 -30 10
-20 -30 10
-30 -20 10
-20 -20 10
-30 -30 20
-20 -30 20
-30 -20 20
-20 -20 20
-20 -30 10
-10 -30 10
-20 -20 10
-10 -20 10
-20 -30 20
-10 -30 20
-20 -20 20
-10 -20 20
-10 -30 10
0 -30 10
-10 -20 10
0 -20 10
-10 -30 20
0 -30 20
-10 -20 20
0 -20 20
40 -30 10
50 -30 10
40 -20 10
50 -20 10
40 -30 20
50 -30 20
40 -20 20
50 -20 20
-50 -20 10
-40 -20 10
-50 -10 10
-40 -10 10
-50 -20 20
-40 -20 20
-50 -10 20
-40 -10 20
-40 -20 10
-30 -20 10
-40 -10 10
-30 -10 10
-40 -20 20
-30 -20 20
-40 -10 20
-30 -10 20
-30 -20 10
-20 -20 10
-30 -10 10
-20 -10 10
-30 -20 20
-20 -20 20
-30 -10 20
-20 -10 20
-20 -20 10
-10 -20 10
-20 -10 10
-10 -10 10
-20 -20 20
-10 -20 20
-20 -10 20
-10 -10 20
-10 -20 10
0 -20 10
-10 -10 10
0 -10 10
-10 -20 20
0 -20 20
-10 -10 20
0 -10 20
-50 -10 10
-40 -10 10
-50 0 10
-40 0 10
-50 -10 20
-40 -10 20
-50 0 20
-40 0 20
-40 -10 10
-30 -10 10
-40 0 10
-30 0 10
-40 -10 20
-30 -10 20
-40 0 20
-30 0 20
-30 -10 10
-20 -10 10
-30 0 10
-20 0 10
-30 -10 20
-20 -10 20
-30 0 20
-20 0 20
-20 -10 10
-10 -10 10
-20 0 10
-10 0 10
-20 -10 20
-10 -10 20
-20 0 20
-10 0 20
-50 0 10
-40 0 10
-50 10 10
-40 10 10
-50 0 20
-40 0 20
-50 10 20
-40 10 20
-40 0 10
-30 0 10
-40 10 10
-30 10 10
-40 0 20
-30 0 20
-40 10 20
-30 10 20
-30 0 10
-20 0 10
-30 10 10
-20 10 10
-30 0 20
-20 0 20
-30 10 20
-20 10 20
-20 0 10
-10 0 10
-20 10 10
-10 10 10
-20 0 20
-10 0 20
-20 10 20
-10 10 20
-50 10 10
-40 10 10
-50 20 10
-40 20 10
-50 10 20
-40 10 20
-50 20 20
-40 20 20
-40 10 10
-30 10 10
-40 20 10
-30 20 10
-40 10 20
-30 10 20
-40 20 20
-30 20 20
-30 10 10
-20 10 10
-30 20 10
-20 20 10
-30 10 20
-20 10 20
-30 20 20
-20 20 20
-20 10 10
-10 10 10
-20 20 10
-10 20 10
-20 10 20
-10 10 20
-20 20 20
-10 20 20
-10 10 10
0 10 10
-10 20 10
0 20 10
-10 10 20
0 10 20
-10 20 20
0 20 20
-50 20 10
-40 20 10
-50 30 10
-40 30 10
-50 20 20
-40 20 20
-50 30 20
-40 30 20
-40 20 10
-30 20 10
-40 30 10
-30 30 10
-40 20 20
-30 20 20
-40 30 20
-30 30 20
-30 20 10
-20 20 10
-30 30 10
-20 30 10
-30 20 20
-20 20 20
-30 30 20
-20 30 20
-20 20 10
-10 20 10
-20 30 10
-10 30 10
-20 20 20
-10 20 20
-20 30 20
-10 30 20
-10 20 10
0 20 10
-10 30 10
0 30 10
-10 20 20
0 20 20
-10 30 20
0 30 20
40 20 10
50 20 10
40 30 10
50 30 10
40 20 20
50 20 20
40 30 20
50 30 20
-50 30 10
-40 30 10
-50 40 10
-40 40 10
-50 30 20
-40 30 20
-50 40 20
-40 40 20
-40 30 10
-30 30 10
-40 40 10
-30 40 10
-40 30 20
-30 30 20
-40 40 20
-30 40 20
-30 30 10
-20 30 10
-30 40 10
-20 40 10
-30 30 20
-20 30 20
-30 40 20
-20 40 20
-20 30 10
-10 30 10
-20 40 10
-10 40 10
-20 30 20
-10 30 20
-20 40 20
-10 40 20
-10 30 10
0 30 10
-10 40 10
0 40 10
-10 30 20
0 30 20
-10 40 20
0 40 20
0 30 10
10 30 10
0 40 10
10 40 10
0 30 20
10 30 20
0 40 20
10 40 20
10 30 10
20 30 10
10 40 10
20 40 10
10 30 20
20 30 20
10 40 20
20 40 20
20 30 10
30 30 10
20 40 10
30 40 10
20 30 20
30 30 20
20 40 20
30 40 20
30 30 10
40 30 10
30 40 10
40 40 10
30 30 20
40 30 20
30 40 20
40 40 20
40 30 10
50 30 10
40 40 10
[...]
  <PointData Scalars="scalars">
    <DataArray type="Float32" Name="u" format="ascii">
0.184586 0.203889 0.197408 0.22076 0.18338 0.202262 0.195929 0.218689 0.203889 0.225343 0.22076 0.248728 0.202262 0.223144 0.218689 0.245806 0.225343 0.248825 0.248728 0.281613 0.223144 0.245889 0.245806 0.277335 0.248825 0.273105 0.281613 0.318329 0.245889 0.269213 0.277335 0.312238 0.273105 0.294982 0.318329 0.356312 0.269213 0.289985 0.312238 0.347671 0.294982 0.312515 0.356312 0.385971 0.289985 0.306514 0.347671 0.375115 0.312515 0.318796 0.385971 0.397814 0.306514 0.31251 0.375115 0.385946 0.318796 0.31247 0.397814 0.38593 0.31251 0.306368 0.385946 0.375031 0.31247 0.295324 0.38593 0.355686 0.306368 0.28931 0.375031 0.346872 0.295324 0.270821 0.355686 0.317991 0.28931 0.26731 0.346872 0.312062 0.197408 0.22076 0.208921 0.237263 0.195929 0.218689 0.207172 0.234696 0.22076 0.248728 0.237263 0.27314 0.218689 0.245806 0.234696 0.269091 0.248728 0.281613 0.27314 0.318136 0.245806 0.277335 0.269091 0.312169 0.281613 0.318329 0.318136 0.375373 0.277335 0.312238 0.312169 0.365187 0.318329 0.356312 0.375373 0.441353 0.312238 0.347671 0.365187 0.425033 0.356312 0.385971 0.441353 0.503098 0.347671 0.375115 0.425033 0.481123 0.385971 0.397814 0.503098 0.530302 0.375115 0.385946 0.481123 0.503265 0.397814 0.38593 0.530302 0.503254 0.385946 0.375031 0.503265 0.481182 0.38593 0.355686 0.503254 0.44182 0.375031 0.346872 0.481182 0.425724 0.355686 0.317991 0.44182 0.375502 0.346872 0.312062 0.425724 0.365173 0.208921 0.237263 0.218539 0.251545 0.207172 0.234696 0.216457 0.248488 0.237263 0.27314 0.251545 0.295982 0.234696 0.269091 0.248488 0.290475 0.27314 0.318136 0.295982 0.355612 0.269091 0.312169 0.290475 0.346787 0.318136 0.375373 0.355612 0.441377 0.312169 0.365187 0.346787 0.425048 0.375373 0.441353 0.441377 0.566128 0.365187 0.425033 0.425048 0.531361 0.44182 0.375502 0.566881 0.444059 0.425724 0.365173 0.530559 0.425376 0.218539 0.251545 0.224866 0.262423 0.216457 0.248488 0.222854 0.257885 0.251545 0.295982 0.262423 0.312073 0.248488 0.290475 0.257885 0.305994 0.295982 0.355612 0.312073 0.383684 0.290475 0.346787 0.305994 0.373402 0.355612 0.441377 0.383684 0.502639 0.346787 0.425048 0.373402 0.480098 0.224866 0.262423 0.227444 0.26543 0.222854 0.257885 0.224862 0.262422 0.262423 0.312073 0.26543 0.320217 0.257885 0.305994 0.262422 0.312072 0.227444 0.26543 0.224866 0.262423 0.224862 0.262422 0.222854 0.257885 0.26543 0.320217 0.262423 0.312072 0.262422 0.312072 0.257885 0.305993 0.224866 0.262423 0.21854 0.251546 0.222854 0.257885 0.216457 0.248488 0.262423 0.312072 0.251546 0.295982 0.257885 0.305993 0.248488 0.290476 0.312072 0.383678 0.295982 0.355609 0.305993 0.373398 0.290476 0.346786 0.383678 0.502601 0.355609 0.441369 0.373398 0.480063 0.346786 0.425049 0.21854 0.251546 0.208922 0.237264 0.216457 0.248488 0.207174 0.234697 0.251546 0.295982 0.237264 0.273142 0.248488 0.290476 0.234697 0.269093 0.295982 0.355609 0.273142 0.318138 0.290476 0.346786 0.269093 0.312172 0.355609 0.441369 0.318138 0.375377 0.346786 0.425049 0.312172 0.365194 0.441369 0.566122 0.375377 0.441364 0.425049 0.531391 0.365194 0.42504 0.56688 0.444051 0.441848 0.375517 0.530559 0.425371 0.425749 0.365188 0.208922 0.237264 0.19741 0.220762 0.207174 0.234697 0.195931 0.218692 0.237264 0.273142 0.220762 0.248731 0.234697 0.269093 0.218692 0.245809 0.273142 0.318138 0.248731 0.281618 0.269093 0.312172 0.245809 0.27734 0.318138 0.375377 0.281618 0.318338 0.312172 0.365194 0.27734 0.312248 0.375377 0.441364 0.318338 0.356328 0.365194 0.42504 0.312248 0.347687 0.441364 0.50313 0.356328 0.385999 0.42504 0.481159 0.347687 0.375142 0.50313 0.530385 0.385999 0.397853 0.481159 0.503346 0.375142 0.385984 0.530385 0.503327 0.397853 0.385968 0.503346 0.481244 0.385984 0.375067 0.503327 0.441848 0.385968 0.355714 0.481244 0.425749 0.375067 0.346898 0.441848 0.375517 0.355714 0.318012 0.425749 0.365188 0.346898 0.312082 0.19741 0.220762 0.184588 0.203892 0.195931 0.218692 0.183382 0.202265 0.220762 0.248731 0.203892 0.225346 0.218692 0.245809 0.202265 0.223148 0.248731 0.281618 0.225346 0.24883 0.245809 0.27734 0.223148 0.245895 0.281618 0.318338 0.24883 0.273114 0.27734 0.312248 0.245895 0.269222 0.318338 0.356328 0.273114 0.294997 0.312248 0.347687 0.269222 0.29 0.356328 0.385999 0.294997 0.312537 0.347687 0.375142 0.29 0.306535 0.385999 0.397853 0.312537 0.318824 0.375142 0.385984 0.306535 0.312537 0.397853 0.385968 0.318824 0.312498 0.385984 0.375067 0.312537 0.306395 0.385968 0.355714 0.312498 0.295348 0.375067 0.346898 0.306395 0.289333 0.355714 0.318012 0.295348 0.270841 0.346898 0.312082 0.289333 0.26733 0.18338 0.202262 0.195929 0.218689 0.179897 0.197592 0.19168 0.212819 0.202262 0.223144 0.218689 0.245806 0.197592 0.216921 0.212819 0.237551 0.223144 0.245889 0.245806 0.277335 0.216921 0.237647 0.237551 0.265637 0.245889 0.269213 0.277335 0.312238 0.237647 0.258417 0.265637 0.295808 0.269213 0.289985 0.312238 0.347671 0.258417 0.277079 0.295808 0.324457 0.289985 0.306514 0.347671 0.375115 0.277079 0.289472 0.324457 0.347057 0.306514 0.31251 0.375115 0.385946 0.289472 0.295549 0.347057 0.355758 0.31251 0.306368 0.385946 0.375031 0.295549 0.289361 0.355758 0.347018 0.306368 0.28931 0.375031 0.346872 0.289361 0.276772 0.347018 0.324284 0.28931 0.26731 0.346872 0.312062 0.276772 0.256875 0.324284 0.295549 0.195929 0.218689 0.207172 0.234696 0.19168 0.212819 0.202166 0.227461 0.218689 0.245806 0.234696 0.269091 0.212819 0.237551 0.227461 0.258374 0.245806 0.277335 0.269091 0.312169 0.237551 0.265637 0.258374 0.295729 0.277335 0.312238 0.312169 0.365187 0.265637 0.295808 0.295729 0.339268 0.312238 0.347671 0.365187 0.425033 0.295808 0.324457 0.339268 0.385706 0.347671 0.375115 0.425033 0.481123 0.324457 0.347057 0.385706 0.425474 0.375115 0.385946 0.481123 0.503265 0.347057 0.355758 0.425474 0.441581 0.385946 0.375031 0.503265 0.481182 0.355758 0.347018 0.441581 0.425554 0.375031 0.346872 0.481182 0.425724 0.347018 0.324284 0.425554 0.386058 0.346872 0.312062 0.425724 0.365173 0.324284 0.295549 0.386058 0.339095 0.207172 0.234696 0.216457 0.248488 0.202166 0.227461 0.210747 0.239904 0.234696 0.269091 0.248488 0.290475 0.227461 0.258374 0.239904 0.277034 0.269091 0.312169 0.290475 0.346787 0.258374 0.295729 0.277034 0.324863 0.312169 0.365187 0.346787 0.425048 0.295729 0.339268 0.324863 0.384309 0.365187 0.425033 0.425048 0.531361 0.339268 0.385706 0.384309 0.46022 0.425724 0.365173 0.530559 0.425376 0.386058 0.339095 0.460625 0.38772 0.216457 0.248488 0.222854 0.257885 0.210747 0.239904 0.216452 0.248488 0.248488 0.290475 0.257885 0.305994 0.239904 0.277034 0.248488 0.290471 0.290475 0.346787 0.305994 0.373402 0.277034 0.324863 0.290471 0.346783 0.346787 0.425048 0.373402 0.480098 0.324863 0.384309 0.346783 0.425004 0.425048 0.531361 0.480098 0.650926 0.384309 0.46022 0.425004 0.530663 0.222854 0.257885 0.224862 0.262422 0.216452 0.248488 0.218531 0.251544 0.257885 0.305994 0.262422 0.312072 0.248488 0.290471 0.251544 0.295978 0.305994 0.373402 0.312072 0.383682 0.290471 0.346783 0.295978 0.355604 0.373402 0.480098 0.383682 0.502719 0.346783 0.425004 0.355604 0.441328 0.224862 0.262422 0.222854 0.257885 0.218531 0.251544 0.216453 0.248488 0.262422 0.312072 0.257885 0.305993 0.251544 0.295978 0.248488 0.290471 0.312072 0.383682 0.305993 0.373398 0.295978 0.355604 0.290471 0.346784 0.383682 0.502719 0.373398 0.480063 0.355604 0.441328 0.346784 0.425041 0.222854 0.257885 0.216457 0.248488 0.216453 0.248488 0.210748 0.239905 0.257885 0.305993 0.248488 0.290476 0.248488 0.290471 0.239905 0.277036 0.305993 0.373398 0.290476 0.346786 0.290471 0.346784 0.277036 0.324863 0.373398 0.480063 0.346786 0.425049 0.346784 0.425041 0.324863 0.384332 0.480063 0.650772 0.425049 0.531391 0.425041 0.531254 0.384332 0.460173 0.216457 0.248488 0.207174 0.234697 0.210748 0.239905 0.202167 0.227463 0.248488 0.290476 0.234697 0.269093 0.239905 0.277036 0.227463 0.258376 0.290476 0.346786 0.269093 0.312172 0.277036 0.324863 0.258376 0.295734 0.346786 0.425049 0.312172 0.365194 0.324863 0.384332 0.295734 0.339273 0.425049 0.531391 0.365194 0.42504 0.384332 0.460173 0.339273 0.38573 0.530559 0.425371 0.425749 0.365188 0.460624 0.387722 0.38608 0.339108 0.207174 0.234697 0.195931 0.218692 0.202167 0.227463 0.191682 0.212821 0.234697 0.269093 0.218692 0.245809 0.227463 0.258376 0.212821 0.237554 0.269093 0.312172 0.245809 0.27734 0.258376 0.295734 0.237554 0.265642 0.312172 0.365194 0.27734 0.312248 0.295734 0.339273 0.265642 0.295818 0.365194 0.42504 0.312248 0.347687 0.339273 0.38573 0.295818 0.324473 0.42504 0.481159 0.347687 0.375142 0.38573 0.425504 0.324473 0.347082 0.481159 0.503346 0.375142 0.385984 0.425504 0.441638 0.347082 0.35579 0.503346 0.481244 0.385984 0.375067 0.441638 0.425598 0.35579 0.347047 0.481244 0.425749 0.375067 0.346898 0.425598 0.38608 0.347047 0.324307 0.425749 0.365188 0.346898 0.312082 0.38608 0.339108 0.324307 0.295568 0.195931 0.218692 0.183382 0.202265 0.191682 0.212821 0.1799 0.197594 0.218692 0.245809 0.202265 0.223148 0.212821 0.237554 0.197594 0.216924 0.245809 0.27734 0.223148 0.245895 0.237554 0.265642 0.216924 0.237652 0.27734 0.312248 0.245895 0.269222 0.265642 0.295818 0.237652 0.258426 0.312248 0.347687 0.269222 0.29 0.295818 0.324473 0.258426 0.277094 0.347687 0.375142 0.29 0.306535 0.324473 0.347082 0.277094 0.289492 0.375142 0.385984 0.306535 0.312537 0.347082 0.35579 0.289492 0.295573 0.385984 0.375067 0.312537 0.306395 0.35579 0.347047 0.295573 0.289384 0.375067 0.346898 0.306395 0.289333 0.347047 0.324307 0.289384 0.276792 0.346898 0.312082 0.289333 0.26733 0.324307 0.295568 0.276792 0.256893 0.179897 0.197592 0.19168 0.212819 0.174494 0.190459 0.185159 0.203983 0.197592 0.216921 0.212819 0.237551 0.190459 0.207582 0.203983 0.22544 0.216921 0.237647 0.237551 0.265637 0.207582 0.225525 0.22544 0.249011 0.237647 0.258417 0.265637 0.295808 0.225525 0.243087 0.249011 0.273328 0.258417 0.277079 0.295808 0.324457 0.243087 0.258305 0.273328 0.295754 0.277079 0.289472 0.324457 0.347057 0.258305 0.269014 0.295754 0.312108 0.289472 0.295549 0.347057 0.355758 0.269014 0.27282 0.312108 0.318209 0.295549 0.289361 0.355758 0.347018 0.27282 0.268931 0.318209 0.312048 0.289361 0.276772 0.347018 0.324284 0.268931 0.258056 0.312048 0.295555 0.276772 0.256875 0.324284 0.295549 0.258056 0.241963 0.295555 0.273068 0.19168 0.212819 0.202166 0.227461 0.185159 0.203983 0.194563 0.216772 0.212819 0.237551 0.227461 0.258374 0.203983 0.22544 0.216772 0.243007 0.237551 0.265637 0.258374 0.295729 0.22544 0.249011 0.243007 0.273306 0.265637 0.295808 0.295729 0.339268 0.249011 0.273328 0.273306 0.306707 0.295808 0.324457 0.339268 0.385706 0.273328 0.295754 0.306707 0.339076 0.324457 0.347057 0.385706 0.425474 0.295754 0.312108 0.339076 0.365273 0.347057 0.355758 0.425474 0.441581 0.312108 0.318209 0.365273 0.375563 0.355758 0.347018 0.441581 0.425554 0.318209 0.312048 0.375563 0.365402 0.347018 0.324284 0.425554 0.386058 0.312048 0.295555 0.365402 0.339159 0.324284 0.295549 0.386058 0.339095 0.295555 0.273068 0.339159 0.307012 0.202166 0.227461 0.210747 0.239904 0.194563 0.216772 0.202178 0.227469 0.227461 0.258374 0.239904 0.277034 0.216772 0.243007 0.227469 0.258364 0.258374 0.295729 0.277034 0.324863 0.243007 0.273306 0.258364 0.295698 0.295729 0.339268 0.324863 0.384309 0.273306 0.306707 0.295698 0.339215 0.339268 0.385706 0.384309 0.46022 0.306707 0.339076 0.339215 0.385595 0.385706 0.425474 0.46022 0.529561 0.339076 0.365273 0.385595 0.425384 0.425474 0.441581 0.529561 0.566208 0.365273 0.375563 0.425384 0.441505 0.441581 0.425554 0.566208 0.529817 0.375563 0.365402 0.441505 0.42553 0.425554 0.386058 0.529817 0.460625 0.365402 0.339159 0.42553 0.386298 0.386058 0.339095 0.460625 0.38772 0.339159 0.307012 0.386298 0.339127 0.210747 0.239904 0.216452 0.248488 0.202178 0.227469 0.207183 0.234704 0.239904 0.277034 0.248488 0.290471 0.227469 0.258364 0.234704 0.269077 0.277034 0.324863 0.290471 0.346783 0.258364 0.295698 0.269077 0.312124 0.324863 0.384309 0.346783 0.425004 0.295698 0.339215 0.312124 0.365186 0.384309 0.46022 0.425004 0.530663 0.339215 0.385595 0.365186 0.425185 0.460625 0.38772 0.530505 0.42534 0.386298 0.339127 0.425741 0.365119 0.216452 0.248488 0.218531 0.251544 0.207183 0.234704 0.208929 0.237272 0.248488 0.290471 0.251544 0.295978 0.234704 0.269077 0.237272 0.273127 0.290471 0.346783 0.295978 0.355604 0.269077 0.312124 0.273127 0.318077 0.346783 0.425004 0.355604 0.441328 0.312124 0.365186 0.318077 0.375476 0.530505 0.42534 0.566995 0.444001 0.425741 0.365119 0.441834 0.375387 0.218531 0.251544 0.216453 0.248488 0.208929 0.237272 0.207183 0.234705 0.251544 0.295978 0.248488 0.290471 0.237272 0.273127 0.234705 0.269077 0.295978 0.355604 0.290471 0.346784 0.273127 0.318077 0.269077 0.312124 0.355604 0.441328 0.346784 0.425041 0.318077 0.375476 0.312124 0.365188 0.441328 0.564874 0.425041 0.531254 0.375476 0.441288 0.365188 0.424975 0.566995 0.444001 0.530489 0.425332 0.441834 0.375387 0.425746 0.365121 0.216453 0.248488 0.210748 0.239905 0.207183 0.234705 0.202179 0.22747 0.248488 0.290471 0.239905 0.277036 0.234705 0.269077 0.22747 0.258366 0.290471 0.346784 0.277036 0.324863 0.269077 0.312124 0.258366 0.295702 0.346784 0.425041 0.324863 0.384332 0.312124 0.365188 0.295702 0.33922 0.425041 0.531254 0.384332 0.460173 0.365188 0.424975 0.33922 0.385644 0.530489 0.425332 0.460624 0.387722 0.425746 0.365121 0.386311 0.339134 0.210748 0.239905 0.202167 0.227463 0.202179 0.22747 0.194565 0.216774 0.239905 0.277036 0.227463 0.258376 0.22747 0.258366 0.216774 0.24301 0.277036 0.324863 0.258376 0.295734 0.258366 0.295702 0.24301 0.273311 0.324863 0.384332 0.295734 0.339273 0.295702 0.33922 0.273311 0.306717 0.384332 0.460173 0.339273 0.38573 0.33922 0.385644 0.306717 0.339088 0.460173 0.529625 0.38573 0.425504 0.385644 0.425409 0.339088 0.3653 0.529625 0.566376 0.425504 0.441638 0.425409 0.441559 0.3653 0.375598 0.566376 0.529858 0.441638 0.425598 0.441559 0.425565 0.375598 0.365431 0.529858 0.460624 0.425598 0.38608 0.425565 0.386311 0.365431 0.339177 0.460624 0.387722 0.38608 0.339108 0.386311 0.339134 0.339177 0.307025 0.202167 0.227463 0.191682 0.212821 0.194565 0.216774 0.185161 0.203985 0.227463 0.258376 0.212821 0.237554 0.216774 0.24301 0.203985 0.225444 0.258376 0.295734 0.237554 0.265642 0.24301 0.273311 0.225444 0.249017 0.295734 0.339273 0.265642 0.295818 0.273311 0.306717 0.249017 0.273337 0.339273 0.38573 0.295818 0.324473 0.306717 0.339088 0.273337 0.295769 0.38573 0.425504 0.324473 0.347082 0.339088 0.3653 0.295769 0.312128 0.425504 0.441638 0.347082 0.35579 0.3653 0.375598 0.312128 0.318233 0.441638 0.425598 0.35579 0.347047 0.375598 0.365431 0.318233 0.31207 0.425598 0.38608 0.347047 0.324307 0.365431 0.339177 0.31207 0.295574 0.38608 0.339108 0.324307 0.295568 0.339177 0.307025 0.295574 0.273084 0.191682 0.212821 0.1799 0.197594 0.185161 0.203985 0.174496 0.190462 0.212821 0.237554 0.197594 0.216924 0.203985 0.225444 0.190462 0.207586 0.237554 0.265642 0.216924 0.237652 0.225444 0.249017 0.207586 0.22553 0.265642 0.295818 0.237652 0.258426 0.249017 0.273337 0.22553 0.243096 0.295818 0.324473 0.258426 0.277094 0.273337 0.295769 0.243096 0.258317 0.324473 0.347082 0.277094 0.289492 0.295769 0.312128 0.258317 0.26903 0.347082 0.35579 0.289492 0.295573 0.312128 0.318233 0.26903 0.27284 0.35579 0.347047 0.295573 0.289384 0.318233 0.31207 0.27284 0.26895 0.347047 0.324307 0.289384 0.276792 0.31207 0.295574 0.26895 0.258073 0.324307 0.295568 0.276792 0.256893 0.295574 0.273084 0.258073 0.241978 0.174494 0.190459 0.185159 0.203983 0.167655 0.181625 0.177024 0.193241 0.190459 0.207582 0.203983 0.22544 0.181625 0.196281 0.193241 0.211173 0.207582 0.225525 0.22544 0.249011 0.196281 0.211244 0.211173 0.230157 0.225525 0.243087 0.249011 0.273328 0.211244 0.225486 0.230157 0.248973 0.243087 0.258305 0.273328 0.295754 0.225486 0.237561 0.248973 0.265545 0.258305 0.269014 0.295754 0.312108 0.237561 0.245746 0.265545 0.277226 0.269014 0.27282 0.312108 0.318209 0.245746 0.248647 0.277226 0.281461 0.27282 0.268931 0.318209 0.312048 0.248647 0.245659 0.281461 0.277164 0.268931 0.258056 0.312048 0.295555 0.245659 0.237344 0.277164 0.265341 0.258056 0.241963 0.295555 0.273068 0.237344 0.224645 0.265341 0.248754 0.185159 0.203983 0.194563 0.216772 0.177024 0.193241 0.1852 0.204019 0.203983 0.22544 0.216772 0.243007 0.193241 0.211173 0.204019 0.225411 0.22544 0.249011 0.243007 0.273306 0.211173 0.230157 0.225411 0.248956 0.249011 0.273328 0.273306 0.306707 0.230157 0.248973 0.248956 0.273268 0.273328 0.295754 0.306707 0.339076 0.248973 0.265545 0.273268 0.295685 0.295754 0.312108 0.339076 0.365273 0.265545 0.277226 0.295685 0.311988 0.312108 0.318209 0.365273 0.375563 0.277226 0.281461 0.311988 0.317978 0.318209 0.312048 0.375563 0.365402 0.281461 0.277164 0.317978 0.311822 0.312048 0.295555 0.365402 0.339159 0.277164 0.265341 0.311822 0.29556 0.295555 0.273068 0.339159 0.307012 0.265341 0.248754 0.29556 0.273058 0.194563 0.216772 0.202178 0.227469 0.1852 0.204019 0.19174 0.21287 0.216772 0.243007 0.227469 0.258364 0.204019 0.225411 0.21287 0.237512 0.243007 0.273306 0.258364 0.295698 0.225411 0.248956 0.237512 0.26555 0.273306 0.306707 0.295698 0.339215 0.248956 0.273268 0.26555 0.295669 0.306707 0.339076 0.339215 0.385595 0.273268 0.295685 0.295669 0.32441 0.339076 0.365273 0.385595 0.425384 0.295685 0.311988 0.32441 0.346657 0.365273 0.375563 0.425384 0.441505 0.311988 0.317978 0.346657 0.355543 0.375563 0.365402 0.441505 0.42553 0.317978 0.311822 0.355543 0.346893 0.365402 0.339159 0.42553 0.386298 0.311822 0.29556 0.346893 0.323329 0.339159 0.307012 0.386298 0.339127 0.29556 0.273058 0.323329 0.29533 0.202178 0.227469 0.207183 0.234704 0.19174 0.21287 0.195995 0.21875 0.227469 0.258364 0.234704 0.269077 0.21287 0.237512 0.21875 0.245764 0.258364 0.295698 0.269077 0.312124 0.237512 0.26555 0.245764 0.277234 0.295698 0.339215 0.312124 0.365186 0.26555 0.295669 0.277234 0.311988 0.339215 0.385595 0.365186 0.425185 0.295669 0.32441 0.311988 0.346649 0.385595 0.425384 0.425185 0.480989 0.32441 0.346657 0.346649 0.37476 0.425384 0.441505 0.480989 0.503187 0.346657 0.355543 0.37476 0.385663 0.441505 0.42553 0.503187 0.481196 0.355543 0.346893 0.385663 0.374856 0.42553 0.386298 0.481196 0.425741 0.346893 0.323329 0.374856 0.34693 0.386298 0.339127 0.425741 0.365119 0.323329 0.29533 0.34693 0.311741 0.207183 0.234704 0.208929 0.237272 0.195995 0.21875 0.197475 0.220823 0.234704 0.269077 0.237272 0.273127 0.21875 0.245764 0.220823 0.248685 0.269077 0.312124 0.273127 0.318077 0.245764 0.277234 0.248685 0.281516 0.312124 0.365186 0.318077 0.375476 0.277234 0.311988 0.281516 0.317987 0.365186 0.425185 0.375476 0.441288 0.311988 0.346649 0.317987 0.355519 0.425185 0.480989 0.441288 0.503151 0.346649 0.37476 0.355519 0.385651 0.480989 0.503187 0.503151 0.530315 0.37476 0.385663 0.385651 0.397537 0.503187 0.481196 0.530315 0.503382 0.385663 0.374856 0.397537 0.385709 0.481196 0.425741 0.503382 0.441834 0.374856 0.34693 0.385709 0.355611 0.425741 0.365119 0.441834 0.375387 0.34693 0.311741 0.355611 0.317902 0.208929 0.237272 0.207183 0.234705 0.197475 0.220823 0.195995 0.21875 0.237272 0.273127 0.234705 0.269077 0.220823 0.248685 0.21875 0.245765 0.273127 0.318077 0.269077 0.312124 0.248685 0.281516 0.245765 0.277235 0.318077 0.375476 0.312124 0.365188 0.281516 0.317987 0.277235 0.311989 0.375476 0.441288 0.365188 0.424975 0.317987 0.355519 0.311989 0.346644 0.441288 0.503151 0.424975 0.481079 0.355519 0.385651 0.346644 0.374773 0.503151 0.530315 0.481079 0.503265 0.385651 0.397537 0.374773 0.385681 0.530315 0.503382 0.503265 0.481228 0.397537 0.385709 0.385681 0.374869 0.503382 0.441834 0.481228 0.425746 0.385709 0.355611 0.374869 0.346937 0.441834 0.375387 0.425746 0.365121 0.355611 0.317902 0.346937 0.311746 0.207183 0.234705 0.202179 0.22747 0.195995 0.21875 0.191741 0.212872 0.234705 0.269077 0.22747 0.258366 0.21875 0.245765 0.212872 0.237515 0.269077 0.312124 0.258366 0.29