<?xml version="1.0" ?> 
<!-- 
# vtk DataFile Version 3.0
#This file was generated by the deal.II library on 16:47:43 at 2019/11/27
-->
<VTKFile type="UnstructuredGrid" version="0.1" byte_order="LittleEndian">
<UnstructuredGrid>
<Piece NumberOfPoints="9512" NumberOfCells="1189" >
  <Points>
    <DataArray type="Float32" NumberOfComponents="3" format="ascii">
-50 -50 0
-40 -50 0
-50 -40 0
-40 -40 0
-50 -50 10
-40 -50 10
-50 -40 10
-40 -40 10
-40 -50 0
-30 -50 0
-40 -40 0
-30 -40 0
-40 -50 10
-30 -50 10
-40 -40 10
-30 -40 10
-30 -50 0
-20 -50 0
-30 -40 0
-20 -40 0
-30 -50 10
-20 -50 10
-30 -40 10
-20 -40 10
-20 -50 0
-10 -50 0
-20 -40 0
-10 -40 0
-20 -50 10
-10 -50 10
-20 -40 10
-10 -40 10
-10 -50 0
0 -50 0
-10 -40 0
0 -40 0
-10 -50 10
0 -50 10
-10 -40 10
0 -40 10
0 -50 0
10 -50 0
0 -40 0
10 -40 0
0 -50 10
10 -50 10
0 -40 10
10 -40 10
10 -50 0
20 -50 0
10 -40 0
20 -40 0
10 -50 10
20 -50 10
10 -40 10
20 -40 10
20 -50 0
30 -50 0
20 -40 0
30 -40 0
20 -50 10
30 -50 10
20 -40 10
30 -40 10
30 -50 0
40 -50 0
30 -40 0
40 -40 0
30 -50 10
40 -50 10
30 -40 10
40 -40 10
40 -50 0
50 -50 0
40 -40 0
50 -40 0
40 -50 10
50 -50 10
40 -40 10
50 -40 10
-50 -40 0
-40 -40 0
-50 -30 0
-40 -30 0
-50 -40 10
-40 -40 10
-50 -30 10
-40 -30 10
-40 -40 0
-30 -40 0
-40 -30 0
-30 -30 0
-40 -40 10
-30 -40 10
-40 -30 10
-30 -30 10
-30 -40 0
-20 -40 0
-30 -30 0
-20 -30 0
-30 -40 10
-20 -40 10
-30 -30 10
-20 -30 10
-20 -40 0
-10 -40 0
-20 -30 0
-10 -30 0
-20 -40 10
-10 -40 10
-20 -30 10
-10 -30 10
-10 -40 0
0 -40 0
-10 -30 0
0 -30 0
-10 -40 10
0 -40 10
-10 -30 10
0 -30 10
0 -40 0
10 -40 0
0 -30 0
10 -30 0
0 -40 10
10 -40 10
0 -30 10
10 -30 10
10 -40 0
20 -40 0
10 -30 0
20 -30 0
10 -40 10
20 -40 10
10 -30 10
20 -30 10
20 -40 0
30 -40 0
20 -30 0
30 -30 0
20 -40 10
30 -40 10
20 -30 10
30 -30 10
30 -40 0
40 -40 0
30 -30 0
40 -30 0
30 -40 10
40 -40 10
30 -30 10
40 -30 10
40 -40 0
50 -40 0
40 -30 0
50 -30 0
40 -40 10
50 -40 10
40 -30 10
50 -30 10
-50 -30 0
-40 -30 0
-50 -20 0
-40 -20 0
-50 -30 10
-40 -30 10
-50 -20 10
-40 -20 10
-40 -30 0
-30 -30 0
-40 -20 0
-30 -20 0
-40 -30 10
-30 -30 10
-40 -20 10
-30 -20 10
-30 -30 0
-20 -30 0
-30 -20 0
-20 -20 0
-30 -30 10
-20 -30 10
-30 -20 10
-20 -20 10
-20 -30 0
-10 -30 0
-20 -20 0
-10 -20 0
-20 -30 10
-10 -30 10
-20 -20 10
-10 -20 10
-10 -30 0
0 -30 0
-10 -20 0
0 -20 0
-10 -30 10
0 -30 10
-10 -20 10
0 -20 10
0 -30 0
10 -30 0
0 -20 0
10 -20 0
0 -30 10
10 -30 10
0 -20 10
10 -20 10
10 -30 0
20 -30 0
10 -20 0
20 -20 0
10 -30 10
20 -30 10
10 -20 10
20 -20 10
20 -30 0
30 -30 0
20 -20 0
30 -20 0
20 -30 10
30 -30 10
20 -20 10
30 -20 10
30 -30 0
40 -30 0
30 -20 0
40 -20 0
30 -30 10
40 -30 10
30 -20 10
40 -20 10
40 -30 0
50 -30 0
40 -20 0
50 -20 0
40 -30 10
50 -30 10
40 -20 10
50 -20 10
-50 -20 0
-40 -20 0
-50 -10 0
-40 -10 0
-50 -20 10
-40 -20 10
-50 -10 10
-40 -10 10
-40 -20 0
-30 -20 0
-40 -10 0
-30 -10 0
-40 -20 10
-30 -20 10
-40 -10 10
-30 -10 10
-30 -20 0
-20 -20 0
-30 -10 0
-20 -10 0
-30 -20 10
-20 -20 10
-30 -10 10
-20 -10 10
-20 -20 0
-10 -20 0
-20 -10 0
-10 -10 0
-20 -20 10
-10 -20 10
-20 -10 10
-10 -10 10
-10 -20 0
0 -20 0
-10 -10 0
0 -10 0
-10 -20 10
0 -20 10
-10 -10 10
0 -10 10
0 -20 0
10 -20 0
0 -10 0
10 -10 0
0 -20 10
10 -20 10
0 -10 10
10 -10 10
10 -20 0
20 -20 0
10 -10 0
20 -10 0
10 -20 10
20 -20 10
10 -10 10
20 -10 10
20 -20 0
30 -20 0
20 -10 0
30 -10 0
20 -20 10
30 -20 10
20 -10 10
30 -10 10
30 -20 0
40 -20 0
30 -10 0
40 -10 0
30 -20 10
40 -20 10
30 -10 10
40 -10 10
40 -20 0
50 -20 0
40 -10 0
50 -10 0
40 -20 10
50 -20 10
40 -10 10
50 -10 10
10 -10 0
20 -10 0
10 0 0
20 0 0
10 -10 10
20 -10 10
10 0 10
20 0 10
20 -10 0
30 -10 0
20 0 0
30 0 0
20 -10 10
30 -10 10
20 0 10
30 0 10
30 -10 0
40 -10 0
30 0 0
40 0 0
30 -10 10
40 -10 10
30 0 10
40 0 10
40 -10 0
50 -10 0
40 0 0
50 0 0
40 -10 10
50 -10 10
40 0 10
50 0 10
10 0 0
20 0 0
10 10 0
20 10 0
10 0 10
20 0 10
10 10 10
20 10 10
20 0 0
30 0 0
20 10 0
30 10 0
20 0 10
30 0 10
20 10 10
30 10 10
30 0 0
40 0 0
30 10 0
40 10 0
30 0 10
40 0 10
30 10 10
40 10 10
40 0 0
50 0 0
40 10 0
50 10 0
40 0 10
50 0 10
40 10 10
50 10 10
-50 10 0
-40 10 0
-50 20 0
-40 20 0
-50 10 10
-40 10 10
-50 20 10
-40 20 10
-40 10 0
-30 10 0
-40 20 0
-30 20 0
-40 10 10
-30 10 10
-40 20 10
-30 20 10
-30 10 0
-20 10 0
-30 20 0
-20 20 0
-30 10 10
-20 10 10
-30 20 10
-20 20 10
-20 10 0
-10 10 0
-20 20 0
-10 20 0
-20 10 10
-10 10 10
-20 20 10
-10 20 10
-10 10 0
0 10 0
-10 20 0
0 20 0
-10 10 10
0 10 10
-10 20 10
0 20 10
0 10 0
10 10 0
0 20 0
10 20 0
0 10 10
10 10 10
0 20 10
10 20 10
10 10 0
20 10 0
10 20 0
20 20 0
10 10 10
20 10 10
10 20 10
20 20 10
20 10 0
30 10 0
20 20 0
30 20 0
20 10 10
30 10 10
20 20 10
30 20 10
30 10 0
40 10 0
30 20 0
40 20 0
30 10 10
40 10 10
30 20 10
40 20 10
40 10 0
50 10 0
40 20 0
50 20 0
40 10 10
50 10 10
40 20 10
50 20 10
-50 20 0
-40 20 0
-50 30 0
-40 30 0
-50 20 10
-40 20 10
-50 30 10
-40 30 10
-40 20 0
-30 20 0
-40 30 0
-30 30 0
-40 20 10
-30 20 10
-40 30 10
-30 30 10
-30 20 0
-20 20 0
-30 30 0
-20 30 0
-30 20 10
-20 20 10
-30 30 10
-20 30 10
-20 20 0
-10 20 0
-20 30 0
-10 30 0
-20 20 10
-10 20 10
-20 30 10
-10 30 10
-10 20 0
0 20 0
-10 30 0
0 30 0
-10 20 10
0 20 10
-10 30 10
0 30 10
0 20 0
10 20 0
0 30 0
10 30 0
0 20 10
10 20 10
0 30 10
10 30 10
10 20 0
20 20 0
10 30 0
20 30 0
10 20 10
20 20 10
10 30 10
20 30 10
20 20 0
30 20 0
20 30 0
30 30 0
20 20 10
30 20 10
20 30 10
30 30 10
30 20 0
40 20 0
30 30 0
40 30 0
30 20 10
40 20 10
30 30 10
40 30 10
40 20 0
50 20 0
40 30 0
50 30 0
40 20 10
50 20 10
40 30 10
50 30 10
-50 30 0
-40 30 0
-50 40 0
-40 40 0
-50 30 10
-40 30 10
-50 40 10
-40 40 10
-40 30 0
-30 30 0
-40 40 0
-30 40 0
-40 30 10
-30 30 10
-40 40 10
-30 40 10
-30 30 0
-20 30 0
-30 40 0
-20 40 0
-30 30 10
-20 30 10
-30 40 10
-20 40 10
-20 30 0
-10 30 0
-20 40 0
-10 40 0
-20 30 10
-10 30 10
-20 40 10
-10 40 10
-10 30 0
0 30 0
-10 40 0
0 40 0
-10 30 10
0 30 10
-10 40 10
0 40 10
0 30 0
10 30 0
0 40 0
10 40 0
0 30 10
10 30 10
0 40 10
10 40 10
10 30 0
20 30 0
10 40 0
20 40 0
10 30 10
20 30 10
10 40 10
20 40 10
20 30 0
30 30 0
20 40 0
30 40 0
20 30 10
30 30 10
20 40 10
30 40 10
30 30 0
40 30 0
30 40 0
40 40 0
30 30 10
40 30 10
30 40 10
40 40 10
40 30 0
50 30 0
40 40 0
50 40 0
40 30 10
50 30 10
40 40 10
50 40 10
-50 40 0
-40 40 0
-50 50 0
-40 50 0
-50 40 10
-40 40 10
-50 50 10
-40 50 10
-40 40 0
-30 40 0
-40 50 0
-30 50 0
-40 40 10
-30 40 10
-40 50 10
-30 50 10
-30 40 0
-20 40 0
-30 50 0
-20 50 0
-30 40 10
-20 40 10
-30 50 10
-20 50 10
-20 40 0
-10 40 0
-20 50 0
-10 50 0
-20 40 10
-10 40 10
-20 50 10
-10 50 10
-10 40 0
0 40 0
-10 50 0
0 50 0
-10 40 10
0 40 10
-10 50 10
0 50 10
0 40 0
10 40 0
0 50 0
10 50 0
0 40 10
10 40 10
0 50 10
10 50 10
10 40 0
20 40 0
10 50 0
20 50 0
10 40 10
20 40 10
10 50 10
20 50 10
20 40 0
30 40 0
20 50 0
30 50 0
20 40 10
30 40 10
20 50 10
30 50 10
30 40 0
40 40 0
30 50 0
40 50 0
30 40 10
40 40 10
30 50 10
40 50 10
40 40 0
50 40 0
40 50 0
50 50 0
40 40 10
50 40 10
40 50 10
50 50 10
-50 -50 10
-40 -50 10
-50 -40 10
-40 -40 10
-50 -50 20
-40 -50 20
-50 -40 20
-40 -40 20
-40 -50 10
-30 -50 10
-40 -40 10
-30 -40 10
-40 -50 20
-30 -50 20
-40 -40 20
-30 -40 20
-30 -50 10
-20 -50 10
-30 -40 10
-20 -40 10
-30 -50 20
-20 -50 20
-30 -40 20
-20 -40 20
-20 -50 10
-10 -50 10
-20 -40 10
-10 -40 10
-20 -50 20
-10 -50 20
-20 -40 20
-10 -40 20
-10 -50 10
0 -50 10
-10 -40 10
0 -40 10
-10 -50 20
0 -50 20
-10 -40 20
0 -40 20
0 -50 10
10 -50 10
0 -40 10
10 -40 10
0 -50 20
10 -50 20
0 -40 20
10 -40 20
10 -50 10
20 -50 10
10 -40 10
20 -40 10
10 -50 20
20 -50 20
10 -40 20
20 -40 20
20 -50 10
30 -50 10
20 -40 10
30 -40 10
20 -50 20
30 -50 20
20 -40 20
30 -40 20
30 -50 10
40 -50 10
30 -40 10
40 -40 10
30 -50 20
40 -50 20
30 -40 20
40 -40 20
40 -50 10
50 -50 10
40 -40 10
50 -40 10
40 -50 20
50 -50 20
40 -40 20
50 -40 20
-50 -40 10
-40 -40 10
-50 -30 10
-40 -30 10
-50 -40 20
-40 -40 20
-50 -30 20
-40 -30 20
-40 -40 10
-30 -40 10
-40 -30 10
-30 -30 10
-40 -40 20
-30 -40 20
-40 -30 20
-30 -30 20
-30 -40 10
-20 -40 10
-30 -30 10
-20 -30 10
-30 -40 20
-20 -40 20
-30 -30 20
-20 -30 20
-20 -40 10
-10 -40 10
-20 -30 10
-10 -30 10
-20 -40 20
-10 -40 20
-20 -30 20
-10 -30 20
-10 -40 10
0 -40 10
-10 -30 10
0 -30 10
-10 -40 20
0 -40 20
-10 -30 20
0 -30 20
0 -40 10
10 -40 10
0 -30 10
10 -30 10
0 -40 20
10 -40 20
0 -30 20
10 -30 20
10 -40 10
20 -40 10
10 -30 10
20 -30 10
10 -40 20
20 -40 20
10 -30 20
20 -30 20
20 -40 10
30 -40 10
20 -30 10
30 -30 10
20 -40 20
30 -40 20
20 -30 20
30 -30 20
30 -40 10
40 -40 10
30 -30 10
40 -30 10
30 -40 20
40 -40 20
30 -30 20
40 -30 20
40 -40 10
50 -40 10
40 -30 10
50 -30 10
40 -40 20
50 -40 20
40 -30 20
50 -30 20
-50 -30 10
-40 -30 10
-50 -20 10
-40 -20 10
-50 -30 20
-40 -30 20
-50 -20 20
-40 -20 20
-40 -30 10
-30 -30 10
-40 -20 10
-30 -20 10
-40 -30 20
-30 -30 20
-40 -20 20
-30 -20 20
-30 -30 10
-20 -30 10
-30 -20 10
-20 -20 10
-30 -30 20
-20 -30 20
-30 -20 20
-20 -20 20
-20 -30 10
-10 -30 10
-20 -20 10
-10 -20 10
-20 -30 20
-10 -30 20
-20 -20 20
-10 -20 20
-10 -30 10
0 -30 10
-10 -20 10
0 -20 10
-10 -30 20
0 -30 20
-10 -20 20
0 -20 20
0 -30 10
10 -30 10
0 -20 10
10 -20 10
0 -30 20
10 -30 20
0 -20 20
10 -20 20
10 -30 10
20 -30 10
10 -20 10
20 -20 10
10 -30 20
20 -30 20
10 -20 20
20 -20 20
20 -30 10
30 -30 10
20 -20 10
30 -20 10
20 -30 20
30 -30 20
20 -20 20
30 -20 20
30 -30 10
40 -30 10
30 -20 10
40 -20 10
30 -30 20
40 -30 20
30 -20 20
40 -20 20
40 -30 10
50 -30 10
40 -20 10
50 -20 10
40 -30 20
50 -30 20
40 -20 20
50 -20 20
-50 -20 10
-40 -20 10
-50 -10 10
-40 -10 10
-50 -20 20
-40 -20 20
-50 -10 20
-40 -10 20
-40 -20 10
-30 -20 10
-40 -10 10
-30 -10 10
-40 -20 20
-30 -20 20
-40 -10 20
-30 -10 20
-30 -20 10
-20 -20 10
-30 -10 10
-20 -10 10
-30 -20 20
-20 -20 20
-30 -10 20
-20 -10 20
-20 -20 10
-10 -20 10
-20 -10 10
-10 -10 10
-20 -20 20
-10 -20 20
-20 -10 20
-10 -10 20
-10 -20 10
0 -20 10
-10 -10 10
0 -10 10
-10 -20 20
0 -20 20
-10 -10 20
0 -10 20
0 -20 10
10 -20 10
0 -10 10
10 -10 10
0 -20 20
10 -20 20
0 -10 20
10 -10 20
10 -20 10
20 -20 10
10 -10 10
20 -10 10
10 -20 20
20 -20 20
10 -10 20
20 -10 20
20 -20 10
30 -20 10
20 -10 10
30 -10 10
20 -20 20
[...]
  <PointData Scalars="scalars">
    <DataArray type="Float32" Name="u" format="ascii">
0.300248 0.312947 0.368759 0.389759 0.295784 0.307791 0.360258 0.379894 0.312947 0.313686 0.389759 0.390588 0.307791 0.308458 0.379894 0.38058 0.313686 0.303701 0.390588 0.371306 0.308458 0.298856 0.38058 0.362412 0.303701 0.285393 0.371306 0.338655 0.298856 0.281226 0.362412 0.331717 0.285393 0.262382 0.338655 0.301508 0.281226 0.259057 0.331717 0.296452 0.262382 0.238277 0.301508 0.266126 0.259057 0.235739 0.296452 0.262609 0.238277 0.215485 0.266126 0.235366 0.235739 0.213593 0.262609 0.232912 0.215485 0.195098 0.235366 0.209504 0.213593 0.193687 0.232912 0.207764 0.195098 0.177301 0.209504 0.187932 0.193687 0.17624 0.207764 0.186671 0.177301 0.161688 0.187932 0.169984 0.17624 0.160886 0.186671 0.169051 0.368759 0.389759 0.470771 0.515398 0.360258 0.379894 0.45477 0.493415 0.389759 0.390588 0.515398 0.515102 0.379894 0.38058 0.493415 0.49323 0.390588 0.371306 0.515102 0.473282 0.38058 0.362412 0.49323 0.456029 0.371306 0.338655 0.473282 0.410915 0.362412 0.331717 0.456029 0.39852 0.338655 0.301508 0.410915 0.347794 0.331717 0.296452 0.39852 0.340155 0.301508 0.266126 0.347794 0.295877 0.296452 0.262609 0.340155 0.291107 0.266126 0.235366 0.295877 0.255115 0.262609 0.232912 0.291107 0.252022 0.235366 0.209504 0.255115 0.223089 0.232912 0.207764 0.252022 0.221002 0.209504 0.187932 0.223089 0.197612 0.207764 0.186671 0.221002 0.196154 0.187932 0.169984 0.197612 0.177041 0.186671 0.169051 0.196154 0.175993 0.470771 0.515398 0.652326 0.748064 0.45477 0.493415 0.606245 0.696162 0.515398 0.515102 0.748064 0.745494 0.493415 0.49323 0.696162 0.694 0.515102 0.473282 0.745494 0.645062 0.49323 0.456029 0.694 0.600919 0.473282 0.410915 0.645062 0.501399 0.456029 0.39852 0.600919 0.479911 0.410915 0.347794 0.501399 0.396136 0.39852 0.340155 0.479911 0.385229 0.347794 0.295877 0.396136 0.323889 0.340155 0.291107 0.385229 0.317775 0.295877 0.255115 0.323889 0.27252 0.291107 0.252022 0.317775 0.26878 0.255115 0.223089 0.27252 0.234487 0.252022 0.221002 0.26878 0.232077 0.223089 0.197612 0.234487 0.205422 0.221002 0.196154 0.232077 0.203793 0.197612 0.177041 0.205422 0.182577 0.196154 0.175993 0.203793 0.181434 0.652326 0.748064 0.901448 1.42771 0.606245 0.696162 0.805806 1.10601 0.748064 0.745494 1.42771 1.42531 0.696162 0.694 1.10601 1.10326 0.745494 0.645062 1.42531 0.881835 0.694 0.600919 1.10326 0.787096 0.645062 0.501399 0.881835 0.585348 0.600919 0.479911 0.787096 0.555241 0.501399 0.396136 0.585348 0.435009 0.479911 0.385229 0.555241 0.421364 0.396136 0.323889 0.435009 0.345185 0.385229 0.317775 0.421364 0.337573 0.323889 0.27252 0.345185 0.284846 0.317775 0.26878 0.337573 0.280534 0.27252 0.234487 0.284846 0.242149 0.26878 0.232077 0.280534 0.239519 0.234487 0.205422 0.242149 0.210537 0.232077 0.203793 0.239519 0.208789 0.205422 0.182577 0.210537 0.186123 0.203793 0.181434 0.208789 0.184918 0.345185 0.284846 0.355693 0.289101 0.337573 0.280534 0.345173 0.284836 0.284846 0.242149 0.289101 0.244889 0.280534 0.239519 0.284836 0.242142 0.242149 0.210537 0.244889 0.212318 0.239519 0.208789 0.242142 0.210533 0.210537 0.186123 0.212318 0.187347 0.208789 0.184918 0.210533 0.186118 0.355693 0.289101 0.345186 0.284846 0.345173 0.284836 0.337573 0.280534 0.289101 0.244889 0.284846 0.242149 0.284836 0.242142 0.280534 0.239519 0.244889 0.212318 0.242149 0.210537 0.242142 0.210533 0.239519 0.208789 0.212318 0.187347 0.210537 0.186123 0.210533 0.186118 0.208789 0.184918 0.901464 1.42787 0.65234 0.748063 0.805827 1.10592 0.606243 0.696173 1.42787 1.42549 0.748063 0.745491 1.10592 1.10316 0.696173 0.694012 1.42549 0.881866 0.745491 0.64507 1.10316 0.787099 0.694012 0.60092 0.881866 0.585349 0.64507 0.501402 0.787099 0.555243 0.60092 0.479913 0.585349 0.43501 0.501402 0.396137 0.555243 0.421365 0.479913 0.38523 0.43501 0.345186 0.396137 0.323889 0.421365 0.337573 0.38523 0.317775 0.345186 0.284846 0.323889 0.27252 0.337573 0.280534 0.317775 0.26878 0.284846 0.242149 0.27252 0.234487 0.280534 0.239519 0.26878 0.232077 0.242149 0.210537 0.234487 0.205422 0.239519 0.208789 0.232077 0.203793 0.210537 0.186123 0.205422 0.182577 0.208789 0.184918 0.203793 0.181434 0.65234 0.748063 0.470772 0.515401 0.606243 0.696173 0.454772 0.493416 0.748063 0.745491 0.515401 0.515105 0.696173 0.694012 0.493416 0.493231 0.745491 0.64507 0.515105 0.473283 0.694012 0.60092 0.493231 0.45603 0.64507 0.501402 0.473283 0.410917 0.60092 0.479913 0.45603 0.398521 0.501402 0.396137 0.410917 0.347794 0.479913 0.38523 0.398521 0.340155 0.396137 0.323889 0.347794 0.295877 0.38523 0.317775 0.340155 0.291107 0.323889 0.27252 0.295877 0.255115 0.317775 0.26878 0.291107 0.252022 0.27252 0.234487 0.255115 0.223089 0.26878 0.232077 0.252022 0.221002 0.234487 0.205422 0.223089 0.197612 0.232077 0.203793 0.221002 0.196155 0.205422 0.182577 0.197612 0.177041 0.203793 0.181434 0.196155 0.175993 0.470772 0.515401 0.36876 0.389759 0.454772 0.493416 0.360258 0.379895 0.515401 0.515105 0.389759 0.390589 0.493416 0.493231 0.379895 0.38058 0.515105 0.473283 0.390589 0.371307 0.493231 0.45603 0.38058 0.362412 0.473283 0.410917 0.371307 0.338655 0.45603 0.398521 0.362412 0.331717 0.410917 0.347794 0.338655 0.301508 0.398521 0.340155 0.331717 0.296453 0.347794 0.295877 0.301508 0.266127 0.340155 0.291107 0.296453 0.262609 0.295877 0.255115 0.266127 0.235366 0.291107 0.252022 0.262609 0.232912 0.255115 0.223089 0.235366 0.209504 0.252022 0.221002 0.232912 0.207764 0.223089 0.197612 0.209504 0.187932 0.221002 0.196155 0.207764 0.186671 0.197612 0.177041 0.187932 0.169984 0.196155 0.175993 0.186671 0.169051 0.36876 0.389759 0.300248 0.312948 0.360258 0.379895 0.295785 0.307791 0.389759 0.390589 0.312948 0.313687 0.379895 0.38058 0.307791 0.308458 0.390589 0.371307 0.313687 0.303701 0.38058 0.362412 0.308458 0.298856 0.371307 0.338655 0.303701 0.285393 0.362412 0.331717 0.298856 0.281226 0.338655 0.301508 0.285393 0.262382 0.331717 0.296453 0.281226 0.259057 0.301508 0.266127 0.262382 0.238277 0.296453 0.262609 0.259057 0.235739 0.266127 0.235366 0.238277 0.215486 0.262609 0.232912 0.235739 0.213593 0.235366 0.209504 0.215486 0.195098 0.232912 0.207764 0.213593 0.193687 0.209504 0.187932 0.195098 0.177301 0.207764 0.186671 0.193687 0.17624 0.187932 0.169984 0.177301 0.161688 0.186671 0.169051 0.17624 0.160886 0.295784 0.307791 0.360258 0.379894 0.283072 0.293405 0.337464 0.353363 0.307791 0.308458 0.379894 0.38058 0.293405 0.293889 0.353363 0.353812 0.308458 0.298856 0.38058 0.362412 0.293889 0.285309 0.353812 0.338739 0.298856 0.281226 0.362412 0.331717 0.285309 0.269593 0.338739 0.312895 0.281226 0.259057 0.331717 0.296452 0.269593 0.249703 0.312895 0.282582 0.259057 0.235739 0.296452 0.262609 0.249703 0.228547 0.282582 0.252777 0.235739 0.213593 0.262609 0.232912 0.228547 0.208181 0.252777 0.225957 0.213593 0.193687 0.232912 0.207764 0.208181 0.18962 0.225957 0.202776 0.193687 0.17624 0.207764 0.186671 0.18962 0.173161 0.202776 0.183029 0.17624 0.160886 0.186671 0.169051 0.173161 0.158546 0.183029 0.166338 0.360258 0.379894 0.45477 0.493415 0.337464 0.353363 0.41133 0.439794 0.379894 0.38058 0.493415 0.49323 0.353363 0.353812 0.439794 0.439708 0.38058 0.362412 0.49323 0.456029 0.353812 0.338739 0.439708 0.411423 0.362412 0.331717 0.456029 0.39852 0.338739 0.312895 0.411423 0.366701 0.331717 0.296452 0.39852 0.340155 0.312895 0.282582 0.366701 0.319678 0.296452 0.262609 0.340155 0.291107 0.282582 0.252777 0.319678 0.277968 0.262609 0.232912 0.291107 0.252022 0.252777 0.225957 0.277968 0.243328 0.232912 0.207764 0.252022 0.221002 0.225957 0.202776 0.243328 0.215053 0.207764 0.186671 0.221002 0.196154 0.202776 0.183029 0.215053 0.191955 0.186671 0.169051 0.196154 0.175993 0.183029 0.166338 0.191955 0.17295 0.45477 0.493415 0.606245 0.696162 0.41133 0.439794 0.508381 0.565024 0.493415 0.49323 0.696162 0.694 0.439794 0.439708 0.565024 0.564061 0.49323 0.456029 0.694 0.600919 0.439708 0.411423 0.564061 0.505578 0.456029 0.39852 0.600919 0.479911 0.411423 0.366701 0.505578 0.427381 0.39852 0.340155 0.479911 0.385229 0.366701 0.319678 0.427381 0.356686 0.340155 0.291107 0.385229 0.317775 0.319678 0.277968 0.356686 0.301069 0.291107 0.252022 0.317775 0.26878 0.277968 0.243328 0.301069 0.258365 0.252022 0.221002 0.26878 0.232077 0.243328 0.215053 0.258365 0.225245 0.221002 0.196154 0.232077 0.203793 0.215053 0.191955 0.225245 0.199115 0.196154 0.175993 0.203793 0.181434 0.191955 0.17295 0.199115 0.17812 0.606245 0.696162 0.805806 1.10601 0.508381 0.565024 0.606128 0.696362 0.696162 0.694 1.10601 1.10326 0.565024 0.564061 0.696362 0.694213 0.694 0.600919 1.10326 0.787096 0.564061 0.505578 0.694213 0.600991 0.600919 0.479911 0.787096 0.555241 0.505578 0.427381 0.600991 0.479902 0.479911 0.385229 0.555241 0.421364 0.427381 0.356686 0.479902 0.385194 0.385229 0.317775 0.421364 0.337573 0.356686 0.301069 0.385194 0.317735 0.317775 0.26878 0.337573 0.280534 0.301069 0.258365 0.317735 0.268747 0.26878 0.232077 0.280534 0.239519 0.258365 0.225245 0.268747 0.232056 0.232077 0.203793 0.239519 0.208789 0.225245 0.199115 0.232056 0.203783 0.203793 0.181434 0.208789 0.184918 0.199115 0.17812 0.203783 0.181425 0.805806 1.10601 0.900939 1.42973 0.606128 0.696362 0.652181 0.748197 1.10601 1.10326 1.42973 1.42709 0.696362 0.694213 0.748197 0.745695 1.10326 0.787096 1.42709 0.881826 0.694213 0.600991 0.745695 0.645217 0.787096 0.555241 0.881826 0.585359 0.600991 0.479902 0.645217 0.501387 0.555241 0.421364 0.585359 0.434998 0.479902 0.385194 0.501387 0.396093 0.421364 0.337573 0.434998 0.345173 0.385194 0.317735 0.396093 0.323836 0.337573 0.280534 0.345173 0.284836 0.317735 0.268747 0.323836 0.272476 0.280534 0.239519 0.284836 0.242142 0.268747 0.232056 0.272476 0.23446 0.239519 0.208789 0.242142 0.210533 0.232056 0.203783 0.23446 0.205407 0.208789 0.184918 0.210533 0.186118 0.203783 0.181425 0.205407 0.182563 0.900939 1.42973 0.805827 1.10592 0.652181 0.748197 0.606116 0.696357 1.42973 1.42709 1.10592 1.10316 0.748197 0.745695 0.696357 0.694208 1.42709 0.881826 1.10316 0.787099 0.745695 0.645217 0.694208 0.600984 0.881826 0.585359 0.787099 0.555243 0.645217 0.501387 0.600984 0.479902 0.585359 0.434998 0.555243 0.421365 0.501387 0.396093 0.479902 0.385194 0.434998 0.345173 0.421365 0.337573 0.396093 0.323836 0.385194 0.317735 0.345173 0.284836 0.337573 0.280534 0.323836 0.272476 0.317735 0.268747 0.284836 0.242142 0.280534 0.239519 0.272476 0.23446 0.268747 0.232056 0.242142 0.210533 0.239519 0.208789 0.23446 0.205407 0.232056 0.203783 0.210533 0.186118 0.208789 0.184918 0.205407 0.182563 0.203783 0.181425 0.805827 1.10592 0.606243 0.696173 0.606116 0.696357 0.508378 0.565015 1.10592 1.10316 0.696173 0.694012 0.696357 0.694208 0.565015 0.564052 1.10316 0.787099 0.694012 0.60092 0.694208 0.600984 0.564052 0.505575 0.787099 0.555243 0.60092 0.479913 0.600984 0.479902 0.505575 0.427381 0.555243 0.421365 0.479913 0.38523 0.479902 0.385194 0.427381 0.356686 0.421365 0.337573 0.38523 0.317775 0.385194 0.317735 0.356686 0.301069 0.337573 0.280534 0.317775 0.26878 0.317735 0.268747 0.301069 0.258365 0.280534 0.239519 0.26878 0.232077 0.268747 0.232056 0.258365 0.225246 0.239519 0.208789 0.232077 0.203793 0.232056 0.203783 0.225246 0.199115 0.208789 0.184918 0.203793 0.181434 0.203783 0.181425 0.199115 0.17812 0.606243 0.696173 0.454772 0.493416 0.508378 0.565015 0.411329 0.439794 0.696173 0.694012 0.493416 0.493231 0.565015 0.564052 0.439794 0.439708 0.694012 0.60092 0.493231 0.45603 0.564052 0.505575 0.439708 0.411423 0.60092 0.479913 0.45603 0.398521 0.505575 0.427381 0.411423 0.366701 0.479913 0.38523 0.398521 0.340155 0.427381 0.356686 0.366701 0.319679 0.38523 0.317775 0.340155 0.291107 0.356686 0.301069 0.319679 0.277968 0.317775 0.26878 0.291107 0.252022 0.301069 0.258365 0.277968 0.243328 0.26878 0.232077 0.252022 0.221002 0.258365 0.225246 0.243328 0.215053 0.232077 0.203793 0.221002 0.196155 0.225246 0.199115 0.215053 0.191955 0.203793 0.181434 0.196155 0.175993 0.199115 0.17812 0.191955 0.17295 0.454772 0.493416 0.360258 0.379895 0.411329 0.439794 0.337464 0.353363 0.493416 0.493231 0.379895 0.38058 0.439794 0.439708 0.353363 0.353811 0.493231 0.45603 0.38058 0.362412 0.439708 0.411423 0.353811 0.338739 0.45603 0.398521 0.362412 0.331717 0.411423 0.366701 0.338739 0.312895 0.398521 0.340155 0.331717 0.296453 0.366701 0.319679 0.312895 0.282582 0.340155 0.291107 0.296453 0.262609 0.319679 0.277968 0.282582 0.252778 0.291107 0.252022 0.262609 0.232912 0.277968 0.243328 0.252778 0.225957 0.252022 0.221002 0.232912 0.207764 0.243328 0.215053 0.225957 0.202776 0.221002 0.196155 0.207764 0.186671 0.215053 0.191955 0.202776 0.183029 0.196155 0.175993 0.186671 0.169051 0.191955 0.17295 0.183029 0.166338 0.360258 0.379895 0.295785 0.307791 0.337464 0.353363 0.283072 0.293405 0.379895 0.38058 0.307791 0.308458 0.353363 0.353811 0.293405 0.293889 0.38058 0.362412 0.308458 0.298856 0.353811 0.338739 0.293889 0.285309 0.362412 0.331717 0.298856 0.281226 0.338739 0.312895 0.285309 0.269593 0.331717 0.296453 0.281226 0.259057 0.312895 0.282582 0.269593 0.249703 0.296453 0.262609 0.259057 0.235739 0.282582 0.252778 0.249703 0.228547 0.262609 0.232912 0.235739 0.213593 0.252778 0.225957 0.228547 0.208181 0.232912 0.207764 0.213593 0.193687 0.225957 0.202776 0.208181 0.18962 0.207764 0.186671 0.193687 0.17624 0.202776 0.183029 0.18962 0.173161 0.186671 0.169051 0.17624 0.160886 0.183029 0.166338 0.173161 0.158546 0.283072 0.293405 0.337464 0.353363 0.264326 0.272549 0.30627 0.318017 0.293405 0.293889 0.353363 0.353812 0.272549 0.27286 0.318017 0.318302 0.293889 0.285309 0.353812 0.338739 0.27286 0.265757 0.318302 0.30695 0.285309 0.269593 0.338739 0.312895 0.265757 0.252695 0.30695 0.287061 0.269593 0.249703 0.312895 0.282582 0.252695 0.235947 0.287061 0.26301 0.249703 0.228547 0.282582 0.252777 0.235947 0.217803 0.26301 0.238462 0.228547 0.208181 0.252777 0.225957 0.217803 0.199954 0.238462 0.215561 0.208181 0.18962 0.225957 0.202776 0.199954 0.183344 0.215561 0.195165 0.18962 0.173161 0.202776 0.183029 0.183344 0.168349 0.195165 0.177379 0.173161 0.158546 0.183029 0.166338 0.168349 0.154847 0.177379 0.162073 0.337464 0.353363 0.41133 0.439794 0.30627 0.318017 0.356911 0.375631 0.353363 0.353812 0.439794 0.439708 0.318017 0.318302 0.375631 0.375691 0.353812 0.338739 0.439708 0.411423 0.318302 0.30695 0.375691 0.357057 0.338739 0.312895 0.411423 0.366701 0.30695 0.287061 0.357057 0.326482 0.312895 0.282582 0.366701 0.319678 0.287061 0.26301 0.326482 0.292056 0.282582 0.252777 0.319678 0.277968 0.26301 0.238462 0.292056 0.259307 0.252777 0.225957 0.277968 0.243328 0.238462 0.215561 0.259307 0.230532 0.225957 0.202776 0.243328 0.215053 0.215561 0.195165 0.230532 0.206067 0.202776 0.183029 0.215053 0.191955 0.195165 0.177379 0.206067 0.185487 0.183029 0.166338 0.191955 0.17295 0.177379 0.162073 0.185487 0.168186 0.41133 0.439794 0.508381 0.565024 0.356911 0.375631 0.411399 0.439892 0.439794 0.439708 0.565024 0.564061 0.375631 0.375691 0.439892 0.439776 0.439708 0.411423 0.564061 0.505578 0.375691 0.357057 0.439776 0.411422 0.411423 0.366701 0.505578 0.427381 0.357057 0.326482 0.411422 0.366644 0.366701 0.319678 0.427381 0.356686 0.326482 0.292056 0.366644 0.319594 0.319678 0.277968 0.356686 0.301069 0.292056 0.259307 0.319594 0.277885 0.277968 0.243328 0.301069 0.258365 0.259307 0.230532 0.277885 0.243266 0.243328 0.215053 0.258365 0.225245 0.230532 0.206067 0.243266 0.21502 0.215053 0.191955 0.225245 0.199115 0.206067 0.185487 0.21502 0.191946 0.191955 0.17295 0.199115 0.17812 0.185487 0.168186 0.191946 0.172949 0.508381 0.565024 0.606128 0.696362 0.411399 0.439892 0.454844 0.493592 0.565024 0.564061 0.696362 0.694213 0.439892 0.439776 0.493592 0.49338 0.564061 0.505578 0.694213 0.600991 0.439776 0.411422 0.49338 0.456075 0.505578 0.427381 0.600991 0.479902 0.411422 0.366644 0.456075 0.398463 0.427381 0.356686 0.479902 0.385194 0.366644 0.319594 0.398463 0.34004 0.356686 0.301069 0.385194 0.317735 0.319594 0.277885 0.34004 0.290985 0.301069 0.258365 0.317735 0.268747 0.277885 0.243266 0.290985 0.251928 0.258365 0.225245 0.268747 0.232056 0.243266 0.21502 0.251928 0.22095 0.225245 0.199115 0.232056 0.203783 0.21502 0.191946 0.22095 0.196137 0.199115 0.17812 0.203783 0.181425 0.191946 0.172949 0.196137 0.175985 0.606128 0.696362 0.652181 0.748197 0.454844 0.493592 0.470807 0.515622 0.696362 0.694213 0.748197 0.745695 0.493592 0.49338 0.515622 0.515299 0.694213 0.600991 0.745695 0.645217 0.49338 0.456075 0.515299 0.473347 0.600991 0.479902 0.645217 0.501387 0.456075 0.398463 0.473347 0.410867 0.479902 0.385194 0.501387 0.396093 0.398463 0.34004 0.410867 0.347672 0.385194 0.317735 0.396093 0.323836 0.34004 0.290985 0.347672 0.295744 0.317735 0.268747 0.323836 0.272476 0.290985 0.251928 0.295744 0.25501 0.268747 0.232056 0.272476 0.23446 0.251928 0.22095 0.25501 0.223031 0.232056 0.203783 0.23446 0.205407 0.22095 0.196137 0.223031 0.197591 0.203783 0.181425 0.205407 0.182563 0.196137 0.175985 0.197591 0.17703 0.652181 0.748197 0.606116 0.696357 0.470807 0.515622 0.454843 0.493589 0.748197 0.745695 0.696357 0.694208 0.515622 0.515299 0.493589 0.493378 0.745695 0.645217 0.694208 0.600984 0.515299 0.473347 0.493378 0.456074 0.645217 0.501387 0.600984 0.479902 0.473347 0.410867 0.456074 0.398462 0.501387 0.396093 0.479902 0.385194 0.410867 0.347672 0.398462 0.34004 0.396093 0.323836 0.385194 0.317735 0.347672 0.295744 0.34004 0.290985 0.323836 0.272476 0.317735 0.268747 0.295744 0.25501 0.290985 0.251928 0.272476 0.23446 0.268747 0.232056 0.25501 0.223031 0.251928 0.22095 0.23446 0.205407 0.232056 0.203783 0.223031 0.197591 0.22095 0.196137 0.205407 0.182563 0.203783 0.181425 0.197591 0.17703 0.196137 0.175985 0.606116 0.696357 0.508378 0.565015 0.454843 0.493589 0.411396 0.439889 0.696357 0.694208 0.565015 0.564052 0.493589 0.493378 0.439889 0.439774 0.694208 0.600984 0.564052 0.505575 0.493378 0.456074 0.439774 0.41142 0.600984 0.479902 0.505575 0.427381 0.456074 0.398462 0.41142 0.366644 0.479902 0.385194 0.427381 0.356686 0.398462 0.34004 0.366644 0.319594 0.385194 0.317735 0.356686 0.301069 0.34004 0.290985 0.319594 0.277885 0.317735 0.268747 0.301069 0.258365 0.290985 0.251928 0.277885 0.243266 0.268747 0.232056 0.258365 0.225246 0.251928 0.22095 0.243266 0.21502 0.232056 0.203783 0.225246 0.199115 0.22095 0.196137 0.21502 0.191946 0.203783 0.181425 0.199115 0.17812 0.196137 0.175985 0.191946 0.172949 0.508378 0.565015 0.411329 0.439794 0.411396 0.439889 0.35691 0.375629 0.565015 0.564052 0.439794 0.439708 0.439889 0.439774 0.375629 0.375689 0.564052 0.505575 0.439708 0.411423 0.439774 0.41142 0.375689 0.357057 0.505575 0.427381 0.411423 0.366701 0.41142 0.366644 0.357057 0.326481 0.427381 0.356686 0.366701 0.319679 0.366644 0.319594 0.326481 0.292056 0.356686 0.301069 0.319679 0.277968 0.319594 0.277885 0.292056 0.259307 0.301069 0.258365 0.277968 0.243328 0.277885 0.243266 0.259307 0.230532 0.258365 0.225246 0.243328 0.215053 0.243266 0.21502 0.230532 0.206067 0.225246 0.199115 0.215053 0.191955 0.21502 0.191946 0.206067 0.185487 0.199115 0.17812 0.191955 0.17295 0.191946 0.172949 0.185487 0.168186 0.411329 0.439794 0.337464 0.353363 0.35691 0.375629 0.306269 0.318016 0.439794 0.439708 0.353363 0.353811 0.375629 0.375689 0.318016 0.318302 0.439708 0.411423 0.353811 0.338739 0.375689 0.357057 0.318302 0.306949 0.411423 0.366701 0.338739 0.312895 0.357057 0.326481 0.306949 0.287061 0.366701 0.319679 0.312895 0.282582 0.326481 0.292056 0.287061 0.26301 0.319679 0.277968 0.282582 0.252778 0.292056 0.259307 0.26301 0.238462 0.277968 0.243328 0.252778 0.225957 0.259307 0.230532 0.238462 0.215561 0.243328 0.215053 0.225957 0.202776 0.230532 0.206067 0.215561 0.195165 0.215053 0.191955 0.202776 0.183029 0.206067 0.185487 0.195165 0.177379 0.191955 0.17295 0.183029 0.166338 0.185487 0.168186 0.177379 0.162073 0.337464 0.353363 0.283072 0.293405 0.306269 0.318016 0.264326 0.272549 0.353363 0.353811 0.293405 0.293889 0.318016 0.318302 0.272549 0.272859 0.35381