<?xml version="1.0" ?> 
<!-- 
# vtk DataFile Version 3.0
#This file was generated by the deal.II library on 16:47:26 at 2019/11/27
-->
<VTKFile type="UnstructuredGrid" version="0.1" byte_order="LittleEndian">
<UnstructuredGrid>
<Piece NumberOfPoints="28552" NumberOfCells="3569" >
  <Points>
    <DataArray type="Float32" NumberOfComponents="3" format="ascii">
-50 -50 0
-40 -50 0
-50 -40 0
-40 -40 0
-50 -50 10
-40 -50 10
-50 -40 10
-40 -40 10
-40 -50 0
-30 -50 0
-40 -40 0
-30 -40 0
-40 -50 10
-30 -50 10
-40 -40 10
-30 -40 10
-30 -50 0
-20 -50 0
-30 -40 0
-20 -40 0
-30 -50 10
-20 -50 10
-30 -40 10
-20 -40 10
-20 -50 0
-10 -50 0
-20 -40 0
-10 -40 0
-20 -50 10
-10 -50 10
-20 -40 10
-10 -40 10
-10 -50 0
0 -50 0
-10 -40 0
0 -40 0
-10 -50 10
0 -50 10
-10 -40 10
0 -40 10
0 -50 0
10 -50 0
0 -40 0
10 -40 0
0 -50 10
10 -50 10
0 -40 10
10 -40 10
10 -50 0
20 -50 0
10 -40 0
20 -40 0
10 -50 10
20 -50 10
10 -40 10
20 -40 10
20 -50 0
30 -50 0
20 -40 0
30 -40 0
20 -50 10
30 -50 10
20 -40 10
30 -40 10
30 -50 0
40 -50 0
30 -40 0
40 -40 0
30 -50 10
40 -50 10
30 -40 10
40 -40 10
40 -50 0
50 -50 0
40 -40 0
50 -40 0
40 -50 10
50 -50 10
40 -40 10
50 -40 10
-50 -40 0
-40 -40 0
-50 -30 0
-40 -30 0
-50 -40 10
-40 -40 10
-50 -30 10
-40 -30 10
-40 -40 0
-30 -40 0
-40 -30 0
-30 -30 0
-40 -40 10
-30 -40 10
-40 -30 10
-30 -30 10
-30 -40 0
-20 -40 0
-30 -30 0
-20 -30 0
-30 -40 10
-20 -40 10
-30 -30 10
-20 -30 10
-20 -40 0
-10 -40 0
-20 -30 0
-10 -30 0
-20 -40 10
-10 -40 10
-20 -30 10
-10 -30 10
-10 -40 0
0 -40 0
-10 -30 0
0 -30 0
-10 -40 10
0 -40 10
-10 -30 10
0 -30 10
0 -40 0
10 -40 0
0 -30 0
10 -30 0
0 -40 10
10 -40 10
0 -30 10
10 -30 10
10 -40 0
20 -40 0
10 -30 0
20 -30 0
10 -40 10
20 -40 10
10 -30 10
20 -30 10
20 -40 0
30 -40 0
20 -30 0
30 -30 0
20 -40 10
30 -40 10
20 -30 10
30 -30 10
30 -40 0
40 -40 0
30 -30 0
40 -30 0
30 -40 10
40 -40 10
30 -30 10
40 -30 10
40 -40 0
50 -40 0
40 -30 0
50 -30 0
40 -40 10
50 -40 10
40 -30 10
50 -30 10
-50 -30 0
-40 -30 0
-50 -20 0
-40 -20 0
-50 -30 10
-40 -30 10
-50 -20 10
-40 -20 10
-40 -30 0
-30 -30 0
-40 -20 0
-30 -20 0
-40 -30 10
-30 -30 10
-40 -20 10
-30 -20 10
-30 -30 0
-20 -30 0
-30 -20 0
-20 -20 0
-30 -30 10
-20 -30 10
-30 -20 10
-20 -20 10
-20 -30 0
-10 -30 0
-20 -20 0
-10 -20 0
-20 -30 10
-10 -30 10
-20 -20 10
-10 -20 10
-10 -30 0
0 -30 0
-10 -20 0
0 -20 0
-10 -30 10
0 -30 10
-10 -20 10
0 -20 10
40 -30 0
50 -30 0
40 -20 0
50 -20 0
40 -30 10
50 -30 10
40 -20 10
50 -20 10
-50 -20 0
-40 -20 0
-50 -10 0
-40 -10 0
-50 -20 10
-40 -20 10
-50 -10 10
-40 -10 10
-40 -20 0
-30 -20 0
-40 -10 0
-30 -10 0
-40 -20 10
-30 -20 10
-40 -10 10
-30 -10 10
-30 -20 0
-20 -20 0
-30 -10 0
-20 -10 0
-30 -20 10
-20 -20 10
-30 -10 10
-20 -10 10
-20 -20 0
-10 -20 0
-20 -10 0
-10 -10 0
-20 -20 10
-10 -20 10
-20 -10 10
-10 -10 10
-10 -20 0
0 -20 0
-10 -10 0
0 -10 0
-10 -20 10
0 -20 10
-10 -10 10
0 -10 10
-50 -10 0
-40 -10 0
-50 0 0
-40 0 0
-50 -10 10
-40 -10 10
-50 0 10
-40 0 10
-40 -10 0
-30 -10 0
-40 0 0
-30 0 0
-40 -10 10
-30 -10 10
-40 0 10
-30 0 10
-50 0 0
-40 0 0
-50 10 0
-40 10 0
-50 0 10
-40 0 10
-50 10 10
-40 10 10
-40 0 0
-30 0 0
-40 10 0
-30 10 0
-40 0 10
-30 0 10
-40 10 10
-30 10 10
-50 10 0
-40 10 0
-50 20 0
-40 20 0
-50 10 10
-40 10 10
-50 20 10
-40 20 10
-40 10 0
-30 10 0
-40 20 0
-30 20 0
-40 10 10
-30 10 10
-40 20 10
-30 20 10
-30 10 0
-20 10 0
-30 20 0
-20 20 0
-30 10 10
-20 10 10
-30 20 10
-20 20 10
-20 10 0
-10 10 0
-20 20 0
-10 20 0
-20 10 10
-10 10 10
-20 20 10
-10 20 10
-10 10 0
0 10 0
-10 20 0
0 20 0
-10 10 10
0 10 10
-10 20 10
0 20 10
-50 20 0
-40 20 0
-50 30 0
-40 30 0
-50 20 10
-40 20 10
-50 30 10
-40 30 10
-40 20 0
-30 20 0
-40 30 0
-30 30 0
-40 20 10
-30 20 10
-40 30 10
-30 30 10
-30 20 0
-20 20 0
-30 30 0
-20 30 0
-30 20 10
-20 20 10
-30 30 10
-20 30 10
-20 20 0
-10 20 0
-20 30 0
-10 30 0
-20 20 10
-10 20 10
-20 30 10
-10 30 10
-10 20 0
0 20 0
-10 30 0
0 30 0
-10 20 10
0 20 10
-10 30 10
0 30 10
20 20 0
30 20 0
20 30 0
30 30 0
20 20 10
30 20 10
20 30 10
30 30 10
40 20 0
50 20 0
40 30 0
50 30 0
40 20 10
50 20 10
40 30 10
50 30 10
-50 30 0
-40 30 0
-50 40 0
-40 40 0
-50 30 10
-40 30 10
-50 40 10
-40 40 10
-40 30 0
-30 30 0
-40 40 0
-30 40 0
-40 30 10
-30 30 10
-40 40 10
-30 40 10
-30 30 0
-20 30 0
-30 40 0
-20 40 0
-30 30 10
-20 30 10
-30 40 10
-20 40 10
-20 30 0
-10 30 0
-20 40 0
-10 40 0
-20 30 10
-10 30 10
-20 40 10
-10 40 10
-10 30 0
0 30 0
-10 40 0
0 40 0
-10 30 10
0 30 10
-10 40 10
0 40 10
0 30 0
10 30 0
0 40 0
10 40 0
0 30 10
10 30 10
0 40 10
10 40 10
10 30 0
20 30 0
10 40 0
20 40 0
10 30 10
20 30 10
10 40 10
20 40 10
20 30 0
30 30 0
20 40 0
30 40 0
20 30 10
30 30 10
20 40 10
30 40 10
30 30 0
40 30 0
30 40 0
40 40 0
30 30 10
40 30 10
30 40 10
40 40 10
40 30 0
50 30 0
40 40 0
50 40 0
40 30 10
50 30 10
40 40 10
50 40 10
-50 40 0
-40 40 0
-50 50 0
-40 50 0
-50 40 10
-40 40 10
-50 50 10
-40 50 10
-40 40 0
-30 40 0
-40 50 0
-30 50 0
-40 40 10
-30 40 10
-40 50 10
-30 50 10
-30 40 0
-20 40 0
-30 50 0
-20 50 0
-30 40 10
-20 40 10
-30 50 10
-20 50 10
-20 40 0
-10 40 0
-20 50 0
-10 50 0
-20 40 10
-10 40 10
-20 50 10
-10 50 10
-10 40 0
0 40 0
-10 50 0
0 50 0
-10 40 10
0 40 10
-10 50 10
0 50 10
0 40 0
10 40 0
0 50 0
10 50 0
0 40 10
10 40 10
0 50 10
10 50 10
10 40 0
20 40 0
10 50 0
20 50 0
10 40 10
20 40 10
10 50 10
20 50 10
20 40 0
30 40 0
20 50 0
30 50 0
20 40 10
30 40 10
20 50 10
30 50 10
30 40 0
40 40 0
30 50 0
40 50 0
30 40 10
40 40 10
30 50 10
40 50 10
40 40 0
50 40 0
40 50 0
50 50 0
40 40 10
50 40 10
40 50 10
50 50 10
-50 -50 10
-40 -50 10
-50 -40 10
-40 -40 10
-50 -50 20
-40 -50 20
-50 -40 20
-40 -40 20
-40 -50 10
-30 -50 10
-40 -40 10
-30 -40 10
-40 -50 20
-30 -50 20
-40 -40 20
-30 -40 20
-30 -50 10
-20 -50 10
-30 -40 10
-20 -40 10
-30 -50 20
-20 -50 20
-30 -40 20
-20 -40 20
-20 -50 10
-10 -50 10
-20 -40 10
-10 -40 10
-20 -50 20
-10 -50 20
-20 -40 20
-10 -40 20
-10 -50 10
0 -50 10
-10 -40 10
0 -40 10
-10 -50 20
0 -50 20
-10 -40 20
0 -40 20
0 -50 10
10 -50 10
0 -40 10
10 -40 10
0 -50 20
10 -50 20
0 -40 20
10 -40 20
10 -50 10
20 -50 10
10 -40 10
20 -40 10
10 -50 20
20 -50 20
10 -40 20
20 -40 20
20 -50 10
30 -50 10
20 -40 10
30 -40 10
20 -50 20
30 -50 20
20 -40 20
30 -40 20
30 -50 10
40 -50 10
30 -40 10
40 -40 10
30 -50 20
40 -50 20
30 -40 20
40 -40 20
40 -50 10
50 -50 10
40 -40 10
50 -40 10
40 -50 20
50 -50 20
40 -40 20
50 -40 20
-50 -40 10
-40 -40 10
-50 -30 10
-40 -30 10
-50 -40 20
-40 -40 20
-50 -30 20
-40 -30 20
-40 -40 10
-30 -40 10
-40 -30 10
-30 -30 10
-40 -40 20
-30 -40 20
-40 -30 20
-30 -30 20
-30 -40 10
-20 -40 10
-30 -30 10
-20 -30 10
-30 -40 20
-20 -40 20
-30 -30 20
-20 -30 20
-20 -40 10
-10 -40 10
-20 -30 10
-10 -30 10
-20 -40 20
-10 -40 20
-20 -30 20
-10 -30 20
-10 -40 10
0 -40 10
-10 -30 10
0 -30 10
-10 -40 20
0 -40 20
-10 -30 20
0 -30 20
0 -40 10
10 -40 10
0 -30 10
10 -30 10
0 -40 20
10 -40 20
0 -30 20
10 -30 20
10 -40 10
20 -40 10
10 -30 10
20 -30 10
10 -40 20
20 -40 20
10 -30 20
20 -30 20
20 -40 10
30 -40 10
20 -30 10
30 -30 10
20 -40 20
30 -40 20
20 -30 20
30 -30 20
30 -40 10
40 -40 10
30 -30 10
40 -30 10
30 -40 20
40 -40 20
30 -30 20
40 -30 20
40 -40 10
50 -40 10
40 -30 10
50 -30 10
40 -40 20
50 -40 20
40 -30 20
50 -30 20
-50 -30 10
-40 -30 10
-50 -20 10
-40 -20 10
-50 -30 20
-40 -30 20
-50 -20 20
-40 -20 20
-40 -30 10
-30 -30 10
-40 -20 10
-30 -20 10
-40 -30 20
-30 -30 20
-40 -20 20
-30 -20 20
-30 -30 10
-20 -30 10
-30 -20 10
-20 -20 10
-30 -30 20
-20 -30 20
-30 -20 20
-20 -20 20
-20 -30 10
-10 -30 10
-20 -20 10
-10 -20 10
-20 -30 20
-10 -30 20
-20 -20 20
-10 -20 20
-10 -30 10
0 -30 10
-10 -20 10
0 -20 10
-10 -30 20
0 -30 20
-10 -20 20
0 -20 20
40 -30 10
50 -30 10
40 -20 10
50 -20 10
40 -30 20
50 -30 20
40 -20 20
50 -20 20
-50 -20 10
-40 -20 10
-50 -10 10
-40 -10 10
-50 -20 20
-40 -20 20
-50 -10 20
-40 -10 20
-40 -20 10
-30 -20 10
-40 -10 10
-30 -10 10
-40 -20 20
-30 -20 20
-40 -10 20
-30 -10 20
-30 -20 10
-20 -20 10
-30 -10 10
-20 -10 10
-30 -20 20
-20 -20 20
-30 -10 20
-20 -10 20
-20 -20 10
-10 -20 10
-20 -10 10
-10 -10 10
-20 -20 20
-10 -20 20
-20 -10 20
-10 -10 20
-10 -20 10
0 -20 10
-10 -10 10
0 -10 10
-10 -20 20
0 -20 20
-10 -10 20
0 -10 20
-50 -10 10
-40 -10 10
-50 0 10
-40 0 10
-50 -10 20
-40 -10 20
-50 0 20
-40 0 20
-40 -10 10
-30 -10 10
-40 0 10
-30 0 10
-40 -10 20
-30 -10 20
-40 0 20
-30 0 20
-30 -10 10
-20 -10 10
-30 0 10
-20 0 10
-30 -10 20
-20 -10 20
-30 0 20
-20 0 20
-20 -10 10
-10 -10 10
-20 0 10
-10 0 10
-20 -10 20
-10 -10 20
-20 0 20
-10 0 20
-10 -10 10
0 -10 10
-10 0 10
0 0 10
-10 -10 20
0 -10 20
-10 0 20
0 0 20
-50 0 10
-40 0 10
-50 10 10
-40 10 10
-50 0 20
-40 0 20
-50 10 20
-40 10 20
-40 0 10
-30 0 10
-40 10 10
-30 10 10
-40 0 20
-30 0 20
-40 10 20
-30 10 20
-30 0 10
-20 0 10
-30 10 10
-20 10 10
-30 0 20
-20 0 20
-30 10 20
-20 10 20
-20 0 10
-10 0 10
-20 10 10
-10 10 10
-20 0 20
-10 0 20
-20 10 20
-10 10 20
-50 10 10
-40 10 10
-50 20 10
-40 20 10
-50 10 20
-40 10 20
-50 20 20
-40 20 20
-40 10 10
-30 10 10
-40 20 10
-30 20 10
-40 10 20
-30 10 20
-40 20 20
-30 20 20
-30 10 10
-20 10 10
-30 20 10
-20 20 10
-30 10 20
-20 10 20
-30 20 20
-20 20 20
-20 10 10
-10 10 10
-20 20 10
-10 20 10
-20 10 20
-10 10 20
-20 20 20
-10 20 20
-10 10 10
0 10 10
-10 20 10
0 20 10
-10 10 20
0 10 20
-10 20 20
0 20 20
-50 20 10
-40 20 10
-50 30 10
-40 30 10
-50 20 20
-40 20 20
-50 30 20
-40 30 20
-40 20 10
-30 20 10
-40 30 10
-30 30 10
-40 20 20
-30 20 20
-40 30 20
-30 30 20
-30 20 10
-20 20 10
-30 30 10
-20 30 10
-30 20 20
-20 20 20
-30 30 20
-20 30 20
-20 20 10
-10 20 10
-20 30 10
-10 30 10
-20 20 20
-10 20 20
-20 30 20
-10 30 20
-10 20 10
0 20 10
-10 30 10
0 30 10
-10 20 20
0 20 20
-10 30 20
0 30 20
40 20 10
50 20 10
40 30 10
50 30 10
40 20 20
50 20 20
40 30 20
50 30 20
-50 30 10
-40 30 10
-50 40 10
-40 40 10
-50 30 20
-40 30 20
-50 40 20
-40 40 20
-40 30 10
-30 30 10
-40 40 10
-30 40 10
-40 30 20
-30 30 20
-40 40 20
-30 40 20
-30 30 10
-20 30 10
-30 40 10
-20 40 10
-30 30 20
-20 30 20
-30 40 20
-20 40 20
-20 30 10
-10 30 10
-20 40 10
-10 40 10
-20 30 20
-10 30 20
-20 40 20
-10 40 20
-10 30 10
0 30 10
-10 40 10
0 40 10
-10 30 20
0 30 20
-10 40 20
0 40 20
0 30 10
10 30 10
0 40 10
[...]
  <PointData Scalars="scalars">
    <DataArray type="Float32" Name="u" format="ascii">
0.184591 0.203896 0.197413 0.220766 0.183385 0.202269 0.195934 0.218696 0.203896 0.225351 0.220766 0.248736 0.202269 0.223153 0.218696 0.245815 0.225351 0.248834 0.248736 0.281623 0.223153 0.2459 0.245815 0.277348 0.248834 0.27311 0.281623 0.318334 0.2459 0.269221 0.277348 0.312253 0.27311 0.294976 0.318334 0.356298 0.269221 0.289986 0.312253 0.347668 0.294976 0.312495 0.356298 0.385926 0.289986 0.306505 0.347668 0.375099 0.312495 0.318774 0.385926 0.397755 0.306505 0.312499 0.375099 0.38592 0.318774 0.312463 0.397755 0.385909 0.312499 0.30637 0.38592 0.375031 0.312463 0.295335 0.385909 0.355703 0.30637 0.289325 0.375031 0.346896 0.295335 0.270838 0.355703 0.318016 0.289325 0.26733 0.346896 0.312091 0.197413 0.220766 0.208923 0.237266 0.195934 0.218696 0.207175 0.234699 0.220766 0.248736 0.237266 0.273144 0.218696 0.245815 0.234699 0.269097 0.248736 0.281623 0.273144 0.31814 0.245815 0.277348 0.269097 0.312185 0.281623 0.318334 0.31814 0.375372 0.277348 0.312253 0.312185 0.365214 0.318334 0.356298 0.375372 0.441468 0.312253 0.347668 0.365214 0.424903 0.356298 0.385926 0.441468 0.502948 0.347668 0.375099 0.424903 0.481142 0.385926 0.397755 0.502948 0.530031 0.375099 0.38592 0.481142 0.503173 0.397755 0.385909 0.530031 0.50317 0.38592 0.375031 0.503173 0.481199 0.385909 0.355703 0.50317 0.441862 0.375031 0.346896 0.481199 0.425781 0.355703 0.318016 0.441862 0.375546 0.346896 0.312091 0.425781 0.365221 0.208923 0.237266 0.218538 0.251543 0.207175 0.234699 0.216456 0.248487 0.237266 0.273144 0.251543 0.295976 0.234699 0.269097 0.248487 0.290472 0.273144 0.31814 0.295976 0.3556 0.269097 0.312185 0.290472 0.346801 0.31814 0.375372 0.3556 0.441474 0.312185 0.365214 0.346801 0.42521 0.375372 0.441468 0.441474 0.568405 0.365214 0.424903 0.42521 0.532403 0.441862 0.375546 0.567083 0.444087 0.425781 0.365221 0.530723 0.425416 0.218538 0.251543 0.224862 0.262415 0.216456 0.248487 0.222851 0.25788 0.251543 0.295976 0.262415 0.312056 0.248487 0.290472 0.25788 0.305981 0.295976 0.3556 0.312056 0.383576 0.290472 0.346801 0.305981 0.373355 0.3556 0.441474 0.383576 0.502663 0.346801 0.42521 0.373355 0.480084 0.441474 0.568405 0.502663 0.717196 0.42521 0.532403 0.480084 0.656317 0.224862 0.262415 0.227439 0.265421 0.222851 0.25788 0.224859 0.262415 0.262415 0.312056 0.265421 0.320185 0.25788 0.305981 0.262415 0.312056 0.227439 0.265421 0.224863 0.262417 0.224859 0.262415 0.222852 0.257882 0.265421 0.320185 0.262417 0.312061 0.262415 0.312056 0.257882 0.305984 0.224863 0.262417 0.21854 0.251545 0.222852 0.257882 0.216458 0.248489 0.262417 0.312061 0.251545 0.295978 0.257882 0.305984 0.248489 0.290476 0.312061 0.383582 0.295978 0.3556 0.305984 0.373381 0.290476 0.346801 0.383582 0.502756 0.3556 0.441444 0.373381 0.480101 0.346801 0.425182 0.502756 0.718132 0.441444 0.568159 0.480101 0.654295 0.425182 0.532608 0.21854 0.251545 0.208924 0.237267 0.216458 0.248489 0.207176 0.234701 0.251545 0.295978 0.237267 0.273145 0.248489 0.290476 0.234701 0.269098 0.295978 0.3556 0.273145 0.318138 0.290476 0.346801 0.269098 0.312183 0.3556 0.441444 0.318138 0.375363 0.346801 0.425182 0.312183 0.365205 0.441444 0.568159 0.375363 0.441436 0.425182 0.532608 0.365205 0.42486 0.794544 0.710155 0.530657 0.50346 0.711289 0.649528 0.50343 0.480991 0.567083 0.44409 0.441902 0.375558 0.530719 0.425423 0.425855 0.365238 0.208924 0.237267 0.197413 0.220766 0.207176 0.234701 0.195935 0.218696 0.237267 0.273145 0.220766 0.248736 0.234701 0.269098 0.218696 0.245815 0.273145 0.318138 0.248736 0.281621 0.269098 0.312183 0.245815 0.277346 0.318138 0.375363 0.281621 0.318328 0.312183 0.365205 0.277346 0.312249 0.375363 0.441436 0.318328 0.356291 0.365205 0.42486 0.312249 0.347661 0.441436 0.502988 0.356291 0.385931 0.42486 0.481146 0.347661 0.375097 0.502988 0.530657 0.385931 0.397802 0.481146 0.50343 0.375097 0.385936 0.530657 0.50346 0.397802 0.385933 0.50343 0.480991 0.385936 0.375018 0.50346 0.441902 0.385933 0.355712 0.480991 0.425855 0.375018 0.346902 0.441902 0.375558 0.355712 0.318022 0.425855 0.365238 0.346902 0.312097 0.197413 0.220766 0.184591 0.203896 0.195935 0.218696 0.183386 0.202269 0.220766 0.248736 0.203896 0.225351 0.218696 0.245815 0.202269 0.223153 0.248736 0.281621 0.225351 0.248832 0.245815 0.277346 0.223153 0.245899 0.281621 0.318328 0.248832 0.273107 0.277346 0.312249 0.245899 0.269218 0.318328 0.356291 0.273107 0.294971 0.312249 0.347661 0.269218 0.289983 0.356291 0.385931 0.294971 0.312495 0.347661 0.375097 0.289983 0.306504 0.385931 0.397802 0.312495 0.31878 0.375097 0.385936 0.306504 0.312502 0.397802 0.385933 0.31878 0.312467 0.385936 0.375018 0.312502 0.30637 0.385933 0.355712 0.312467 0.295339 0.375018 0.346902 0.30637 0.289328 0.355712 0.318022 0.295339 0.270842 0.346902 0.312097 0.289328 0.267334 0.183385 0.202269 0.195934 0.218696 0.179903 0.197599 0.191685 0.212825 0.202269 0.223153 0.218696 0.245815 0.197599 0.216931 0.212825 0.237562 0.223153 0.2459 0.245815 0.277348 0.216931 0.237661 0.237562 0.265654 0.2459 0.269221 0.277348 0.312253 0.237661 0.258431 0.265654 0.295834 0.269221 0.289986 0.312253 0.347668 0.258431 0.277093 0.295834 0.324475 0.289986 0.306505 0.347668 0.375099 0.277093 0.289481 0.324475 0.347078 0.306505 0.312499 0.375099 0.38592 0.289481 0.29556 0.347078 0.355776 0.312499 0.30637 0.38592 0.375031 0.29556 0.289375 0.355776 0.347043 0.30637 0.289325 0.375031 0.346896 0.289375 0.276793 0.347043 0.324315 0.289325 0.26733 0.346896 0.312091 0.276793 0.256898 0.324315 0.295581 0.195934 0.218696 0.207175 0.234699 0.191685 0.212825 0.202169 0.227466 0.218696 0.245815 0.234699 0.269097 0.212825 0.237562 0.227466 0.258383 0.245815 0.277348 0.269097 0.312185 0.237562 0.265654 0.258383 0.29576 0.277348 0.312253 0.312185 0.365214 0.265654 0.295834 0.29576 0.339312 0.312253 0.347668 0.365214 0.424903 0.295834 0.324475 0.339312 0.385845 0.347668 0.375099 0.424903 0.481142 0.324475 0.347078 0.385845 0.425516 0.375099 0.38592 0.481142 0.503173 0.347078 0.355776 0.425516 0.441643 0.38592 0.375031 0.503173 0.481199 0.355776 0.347043 0.441643 0.425622 0.375031 0.346896 0.481199 0.425781 0.347043 0.324315 0.425622 0.386123 0.346896 0.312091 0.425781 0.365221 0.324315 0.295581 0.386123 0.339147 0.207175 0.234699 0.216456 0.248487 0.202169 0.227466 0.210748 0.239905 0.234699 0.269097 0.248487 0.290472 0.227466 0.258383 0.239905 0.27704 0.269097 0.312185 0.290472 0.346801 0.258383 0.29576 0.27704 0.324877 0.312185 0.365214 0.346801 0.42521 0.29576 0.339312 0.324877 0.384528 0.365214 0.424903 0.42521 0.532403 0.339312 0.385845 0.384528 0.46016 0.425781 0.365221 0.530723 0.425416 0.386123 0.339147 0.460754 0.387791 0.216456 0.248487 0.222851 0.25788 0.210748 0.239905 0.216452 0.248486 0.248487 0.290472 0.25788 0.305981 0.239905 0.27704 0.248486 0.290465 0.290472 0.346801 0.305981 0.373355 0.27704 0.324877 0.290465 0.346799 0.346801 0.42521 0.373355 0.480084 0.324877 0.384528 0.346799 0.425347 0.42521 0.532403 0.480084 0.656317 0.384528 0.46016 0.425347 0.533759 0.222851 0.25788 0.224859 0.262415 0.216452 0.248486 0.21853 0.251542 0.25788 0.305981 0.262415 0.312056 0.248486 0.290465 0.251542 0.295973 0.305981 0.373355 0.312056 0.383623 0.290465 0.346799 0.295973 0.355637 0.373355 0.480084 0.383623 0.502727 0.346799 0.425347 0.355637 0.441749 0.480084 0.656317 0.502727 0.715934 0.425347 0.533759 0.441749 0.569405 0.224859 0.262415 0.222852 0.257882 0.21853 0.251542 0.216453 0.248488 0.262415 0.312056 0.257882 0.305984 0.251542 0.295973 0.248488 0.290472 0.312056 0.383623 0.305984 0.373381 0.295973 0.355637 0.290472 0.34681 0.383623 0.502727 0.373381 0.480101 0.355637 0.441749 0.34681 0.425192 0.222852 0.257882 0.216458 0.248489 0.216453 0.248488 0.21075 0.239908 0.257882 0.305984 0.248489 0.290476 0.248488 0.290472 0.239908 0.277043 0.305984 0.373381 0.290476 0.346801 0.290472 0.34681 0.277043 0.32489 0.373381 0.480101 0.346801 0.425182 0.34681 0.425192 0.32489 0.384452 0.480101 0.654295 0.425182 0.532608 0.425192 0.531266 0.384452 0.460327 0.216458 0.248489 0.207176 0.234701 0.21075 0.239908 0.202171 0.227468 0.248489 0.290476 0.234701 0.269098 0.239908 0.277043 0.227468 0.258385 0.290476 0.346801 0.269098 0.312183 0.277043 0.32489 0.258385 0.295756 0.346801 0.425182 0.312183 0.365205 0.32489 0.384452 0.295756 0.339318 0.425182 0.532608 0.365205 0.42486 0.384452 0.460327 0.339318 0.385825 0.530719 0.425423 0.425855 0.365238 0.460782 0.387798 0.386128 0.33916 0.207176 0.234701 0.195935 0.218696 0.202171 0.227468 0.191686 0.212826 0.234701 0.269098 0.218696 0.245815 0.227468 0.258385 0.212826 0.237562 0.269098 0.312183 0.245815 0.277346 0.258385 0.295756 0.237562 0.265653 0.312183 0.365205 0.277346 0.312249 0.295756 0.339318 0.265653 0.295831 0.365205 0.42486 0.312249 0.347661 0.339318 0.385825 0.295831 0.324473 0.42486 0.481146 0.347661 0.375097 0.385825 0.425526 0.324473 0.347077 0.481146 0.50343 0.375097 0.385936 0.425526 0.441676 0.347077 0.355782 0.50343 0.480991 0.385936 0.375018 0.441676 0.425705 0.355782 0.34705 0.480991 0.425855 0.375018 0.346902 0.425705 0.386128 0.34705 0.324323 0.425855 0.365238 0.346902 0.312097 0.386128 0.33916 0.324323 0.295587 0.195935 0.218696 0.183386 0.202269 0.191686 0.212826 0.179904 0.1976 0.218696 0.245815 0.202269 0.223153 0.212826 0.237562 0.1976 0.216931 0.245815 0.277346 0.223153 0.245899 0.237562 0.265653 0.216931 0.23766 0.277346 0.312249 0.245899 0.269218 0.265653 0.295831 0.23766 0.25843 0.312249 0.347661 0.269218 0.289983 0.295831 0.324473 0.25843 0.277091 0.347661 0.375097 0.289983 0.306504 0.324473 0.347077 0.277091 0.28948 0.375097 0.385936 0.306504 0.312502 0.347077 0.355782 0.28948 0.295562 0.385936 0.375018 0.312502 0.30637 0.355782 0.34705 0.295562 0.289378 0.375018 0.346902 0.30637 0.289328 0.34705 0.324323 0.289378 0.276798 0.346902 0.312097 0.289328 0.267334 0.324323 0.295587 0.276798 0.256903 0.179903 0.197599 0.191685 0.212825 0.174499 0.190466 0.185164 0.20399 0.197599 0.216931 0.212825 0.237562 0.190466 0.207592 0.20399 0.225451 0.216931 0.237661 0.237562 0.265654 0.207592 0.225539 0.225451 0.249029 0.237661 0.258431 0.265654 0.295834 0.225539 0.243105 0.249029 0.273352 0.258431 0.277093 0.295834 0.324475 0.243105 0.258323 0.273352 0.295786 0.277093 0.289481 0.324475 0.347078 0.258323 0.269033 0.295786 0.312137 0.289481 0.29556 0.347078 0.355776 0.269033 0.272839 0.312137 0.318236 0.29556 0.289375 0.355776 0.347043 0.272839 0.268952 0.318236 0.312077 0.289375 0.276793 0.347043 0.324315 0.268952 0.258079 0.312077 0.295585 0.276793 0.256898 0.324315 0.295581 0.258079 0.241985 0.295585 0.273097 0.191685 0.212825 0.202169 0.227466 0.185164 0.20399 0.194568 0.216778 0.212825 0.237562 0.227466 0.258383 0.20399 0.225451 0.216778 0.243018 0.237562 0.265654 0.258383 0.29576 0.225451 0.249029 0.243018 0.273328 0.265654 0.295834 0.29576 0.339312 0.249029 0.273352 0.273328 0.306754 0.295834 0.324475 0.339312 0.385845 0.273352 0.295786 0.306754 0.339111 0.324475 0.347078 0.385845 0.425516 0.295786 0.312137 0.339111 0.365328 0.347078 0.355776 0.425516 0.441643 0.312137 0.318236 0.365328 0.375613 0.355776 0.347043 0.441643 0.425622 0.318236 0.312077 0.375613 0.36545 0.347043 0.324315 0.425622 0.386123 0.312077 0.295585 0.36545 0.339205 0.324315 0.295581 0.386123 0.339147 0.295585 0.273097 0.339205 0.307052 0.202169 0.227466 0.210748 0.239905 0.194568 0.216778 0.20218 0.227472 0.227466 0.258383 0.239905 0.27704 0.216778 0.243018 0.227472 0.258371 0.258383 0.29576 0.27704 0.324877 0.243018 0.273328 0.258371 0.295719 0.29576 0.339312 0.324877 0.384528 0.273328 0.306754 0.295719 0.339252 0.339312 0.385845 0.384528 0.46016 0.306754 0.339111 0.339252 0.385801 0.385845 0.425516 0.46016 0.529972 0.339111 0.365328 0.385801 0.42541 0.425516 0.441643 0.529972 0.566551 0.365328 0.375613 0.42541 0.441567 0.441643 0.425622 0.566551 0.530035 0.375613 0.36545 0.441567 0.425589 0.425622 0.386123 0.530035 0.460754 0.36545 0.339205 0.425589 0.386355 0.386123 0.339147 0.460754 0.387791 0.339205 0.307052 0.386355 0.339173 0.210748 0.239905 0.216452 0.248486 0.20218 0.227472 0.207184 0.234706 0.239905 0.27704 0.248486 0.290465 0.227472 0.258371 0.234706 0.269079 0.27704 0.324877 0.290465 0.346799 0.258371 0.295719 0.269079 0.312131 0.324877 0.384528 0.346799 0.425347 0.295719 0.339252 0.312131 0.365106 0.384528 0.46016 0.425347 0.533759 0.339252 0.385801 0.365106 0.424364 0.460754 0.387791 0.53067 0.425371 0.386355 0.339173 0.425774 0.365155 0.216452 0.248486 0.21853 0.251542 0.207184 0.234706 0.20893 0.237273 0.248486 0.290465 0.251542 0.295973 0.234706 0.269079 0.237273 0.273127 0.290465 0.346799 0.295973 0.355637 0.269079 0.312131 0.273127 0.318077 0.346799 0.425347 0.355637 0.441749 0.312131 0.365106 0.318077 0.375413 0.425347 0.533759 0.441749 0.569405 0.365106 0.424364 0.375413 0.441551 0.53067 0.425371 0.567163 0.444023 0.425774 0.365155 0.441876 0.375423 0.21853 0.251542 0.216453 0.248488 0.20893 0.237273 0.207185 0.234707 0.251542 0.295973 0.248488 0.290472 0.237273 0.273127 0.234707 0.269083 0.295973 0.355637 0.290472 0.34681 0.273127 0.318077 0.269083 0.312135 0.355637 0.441749 0.34681 0.425192 0.318077 0.375413 0.312135 0.365223 0.441749 0.569405 0.425192 0.531266 0.375413 0.441551 0.365223 0.425063 0.794245 0.711468 0.711237 0.649059 0.530542 0.503461 0.503333 0.480964 0.567163 0.444023 0.530664 0.425382 0.441876 0.375423 0.425856 0.365173 0.216453 0.248488 0.21075 0.239908 0.207185 0.234707 0.202182 0.227474 0.248488 0.290472 0.239908 0.277043 0.234707 0.269083 0.227474 0.258375 0.290472 0.34681 0.277043 0.32489 0.269083 0.312135 0.258375 0.295726 0.34681 0.425192 0.32489 0.384452 0.312135 0.365223 0.295726 0.339264 0.425192 0.531266 0.384452 0.460327 0.365223 0.425063 0.339264 0.385704 0.530664 0.425382 0.460782 0.387798 0.425856 0.365173 0.386359 0.339187 0.21075 0.239908 0.202171 0.227468 0.202182 0.227474 0.194569 0.21678 0.239908 0.277043 0.227468 0.258385 0.227474 0.258375 0.21678 0.24302 0.277043 0.32489 0.258385 0.295756 0.258375 0.295726 0.24302 0.27333 0.32489 0.384452 0.295756 0.339318 0.295726 0.339264 0.27333 0.306751 0.384452 0.460327 0.339318 0.385825 0.339264 0.385704 0.306751 0.339123 0.460327 0.529866 0.385825 0.425526 0.385704 0.425441 0.339123 0.365327 0.529866 0.566559 0.425526 0.441676 0.425441 0.4416 0.365327 0.375619 0.566559 0.530037 0.441676 0.425705 0.4416 0.425673 0.375619 0.365464 0.530037 0.460782 0.425705 0.386128 0.425673 0.386359 0.365464 0.339219 0.460782 0.387798 0.386128 0.33916 0.386359 0.339187 0.339219 0.307059 0.202171 0.227468 0.191686 0.212826 0.194569 0.21678 0.185166 0.203991 0.227468 0.258385 0.212826 0.237562 0.21678 0.24302 0.203991 0.225452 0.258385 0.295756 0.237562 0.265653 0.24302 0.27333 0.225452 0.249029 0.295756 0.339318 0.265653 0.295831 0.27333 0.306751 0.249029 0.273353 0.339318 0.385825 0.295831 0.324473 0.306751 0.339123 0.273353 0.295786 0.385825 0.425526 0.324473 0.347077 0.339123 0.365327 0.295786 0.312138 0.425526 0.441676 0.347077 0.355782 0.365327 0.375619 0.312138 0.31824 0.441676 0.425705 0.355782 0.34705 0.375619 0.365464 0.31824 0.312083 0.425705 0.386128 0.34705 0.324323 0.365464 0.339219 0.312083 0.295592 0.386128 0.33916 0.324323 0.295587 0.339219 0.307059 0.295592 0.273104 0.191686 0.212826 0.179904 0.1976 0.185166 0.203991 0.1745 0.190468 0.212826 0.237562 0.1976 0.216931 0.203991 0.225452 0.190468 0.207593 0.237562 0.265653 0.216931 0.23766 0.225452 0.249029 0.207593 0.22554 0.265653 0.295831 0.23766 0.25843 0.249029 0.273353 0.22554 0.243105 0.295831 0.324473 0.25843 0.277091 0.273353 0.295786 0.243105 0.258324 0.324473 0.347077 0.277091 0.28948 0.295786 0.312138 0.258324 0.269034 0.347077 0.355782 0.28948 0.295562 0.312138 0.31824 0.269034 0.272842 0.355782 0.34705 0.295562 0.289378 0.31824 0.312083 0.272842 0.268957 0.34705 0.324323 0.289378 0.276798 0.312083 0.295592 0.268957 0.258085 0.324323 0.295587 0.276798 0.256903 0.295592 0.273104 0.258085 0.241991 0.174499 0.190466 0.185164 0.20399 0.16766 0.181631 0.177029 0.193248 0.190466 0.207592 0.20399 0.225451 0.181631 0.196289 0.193248 0.211182 0.207592 0.225539 0.225451 0.249029 0.196289 0.211255 0.211182 0.23017 0.225539 0.243105 0.249029 0.273352 0.211255 0.2255 0.23017 0.24899 0.243105 0.258323 0.273352 0.295786 0.2255 0.237578 0.24899 0.265564 0.258323 0.269033 0.295786 0.312137 0.237578 0.245764 0.265564 0.277248 0.269033 0.272839 0.312137 0.318236 0.245764 0.248665 0.277248 0.281483 0.272839 0.268952 0.318236 0.312077 0.248665 0.245678 0.281483 0.277186 0.268952 0.258079 0.312077 0.295585 0.245678 0.237363 0.277186 0.265363 0.258079 0.241985 0.295585 0.273097 0.237363 0.224664 0.265363 0.248776 0.185164 0.20399 0.194568 0.216778 0.177029 0.193248 0.185204 0.204025 0.20399 0.225451 0.216778 0.243018 0.193248 0.211182 0.204025 0.225419 0.225451 0.249029 0.243018 0.273328 0.211182 0.23017 0.225419 0.248969 0.249029 0.273352 0.273328 0.306754 0.23017 0.24899 0.248969 0.273287 0.273352 0.295786 0.306754 0.339111 0.24899 0.265564 0.273287 0.295713 0.295786 0.312137 0.339111 0.365328 0.265564 0.277248 0.295713 0.31201 0.312137 0.318236 0.365328 0.375613 0.277248 0.281483 0.31201 0.317999 0.318236 0.312077 0.375613 0.36545 0.281483 0.277186 0.317999 0.311845 0.312077 0.295585 0.36545 0.339205 0.277186 0.265363 0.311845 0.295585 0.295585 0.273097 0.339205 0.307052 0.265363 0.248776 0.295585 0.273082 0.194568 0.216778 0.20218 0.227472 0.185204 0.204025 0.191743 0.212874 0.216778 0.243018 0.227472 0.258371 0.204025 0.225419 0.212874 0.237518 0.243018 0.273328 0.258371 0.295719 0.225419 0.248969 0.237518 0.265555 0.273328 0.306754 0.295719 0.339252 0.248969 0.273287 0.265555 0.295674 0.306754 0.339111 0.339252 0.385801 0.273287 0.295713 0.295674 0.324387 0.339111 0.365328 0.385801 0.42541 0.295713 0.31201 0.324387 0.346662 0.365328 0.375613 0.42541 0.441567 0.31201 0.317999 0.346662 0.35555 0.375613 0.36545 0.441567 0.425589 0.317999 0.311845 0.35555 0.346906 0.36545 0.339205 0.425589 0.386355 0.311845 0.295585 0.346906 0.323348 0.339205 0.307052 0.386355 0.339173 0.295585 0.273082 0.323348 0.295352 0.20218 0.227472 0.207184 0.234706 0.191743 0.212874 0.195997 0.218752 0.227472 0.258371 0.234706 0.269079 0.212874 0.237518 0.218752 0.245766 0.258371 0.295719 0.269079 0.312131 0.237518 0.265555 0.245766 0.277228 0.295719 0.339252 0.312131 0.365106 0.265555 0.295674 0.277228 0.311977 0.339252 0.385801 0.365106 0.424364 0.295674 0.324387 0.311977 0.346579 0.385801 0.42541 0.424364 0.48114 0.324387 0.346662 0.346579 0.374718 0.42541 0.441567 0.48114 0.50315 0.346662 0.35555 0.374718 0.385628 0.441567 0.425589 0.50315 0.481183 0.35555 0.346906 0.385628 0.374839 0.425589 0.386355 0.481183 0.425774 0.346906 0.323348 0.374839 0.346935 0.386355 0.339173 0.425774 0.365155 0.323348 0.295352 0.346935 0.311755 0.207184 0.234706 0.20893 0.237273 0.195997 0.218752 0.197476 0.220825 0.234706 0.269079 0.237273 0.273127 0.218752 0.245766 0.220825 0.248686 0.269079 0.312131 0.273127 0.318077 0.245766 0.277228 0.248686 0.281511 0.312131 0.365106 0.318077 0.375413 0.277228 0.311977 0.281511 0.317965 0.365106 0.424364 0.375413 0.441551 0.311977 0.346579 0.317965 0.355501 0.424364 0.48114 0.441551 0.503065 0.346579 0.374718 0.355501 0.385589 0.48114 0.50315 0.503065 0.530542 0.374718 0.385628 0.385589 0.397492 0.50315 0.481183 0.530542 0.503461 0.385628 0.374839 0.397492 0.385677 0.481183 0.425774 0.503461 0.441876 0.374839 0.346935 0.385677 0.355611 0.425774 0.365155 0.441876 0.375423 0.346935 0.311755 0.355611 0.317912 0.20893 0.237273 0.207185 0.234707 0.197476 0.220825 0.195998 0.218753 0.237273 0.273127 0.234707 0.269083 0.220825 0.248686 0.218753 0.245769 0.273127 0.318077 0.269083 0.312135 0.248686 0.281511 0.245769 0.277239 0.318077 0.375413 0.312135 0.365223 0.281511 0.317965 0.277239 0.311987 0.375413 0.441551 0.365223 0.425063 0.317965 0.355501 0.311987 0.346635 0.441551 0.503065 0.425063 0.481033 0.355501 0.385589 0.346635 0.374736 0.503065 0.530542 0.481033 0.503333 0.385589 0.397492 0.374736 0.385642 0.53