<?xml version="1.0" ?> 
<!-- 
# vtk DataFile Version 3.0
#This file was generated by the deal.II library on 16:51:17 at 2019/11/27
-->
<VTKFile type="UnstructuredGrid" version="0.1" byte_order="LittleEndian">
<UnstructuredGrid>
<Piece NumberOfPoints="38352" NumberOfCells="4794" >
  <Points>
    <DataArray type="Float32" NumberOfComponents="3" format="ascii">
-50 -50 0
-40 -50 0
-50 -40 0
-40 -40 0
-50 -50 10
-40 -50 10
-50 -40 10
-40 -40 10
-40 -50 0
-30 -50 0
-40 -40 0
-30 -40 0
-40 -50 10
-30 -50 10
-40 -40 10
-30 -40 10
-30 -50 0
-20 -50 0
-30 -40 0
-20 -40 0
-30 -50 10
-20 -50 10
-30 -40 10
-20 -40 10
-20 -50 0
-10 -50 0
-20 -40 0
-10 -40 0
-20 -50 10
-10 -50 10
-20 -40 10
-10 -40 10
-10 -50 0
0 -50 0
-10 -40 0
0 -40 0
-10 -50 10
0 -50 10
-10 -40 10
0 -40 10
0 -50 0
10 -50 0
0 -40 0
10 -40 0
0 -50 10
10 -50 10
0 -40 10
10 -40 10
10 -50 0
20 -50 0
10 -40 0
20 -40 0
10 -50 10
20 -50 10
10 -40 10
20 -40 10
20 -50 0
30 -50 0
20 -40 0
30 -40 0
20 -50 10
30 -50 10
20 -40 10
30 -40 10
30 -50 0
40 -50 0
30 -40 0
40 -40 0
30 -50 10
40 -50 10
30 -40 10
40 -40 10
40 -50 0
50 -50 0
40 -40 0
50 -40 0
40 -50 10
50 -50 10
40 -40 10
50 -40 10
-50 -40 0
-40 -40 0
-50 -30 0
-40 -30 0
-50 -40 10
-40 -40 10
-50 -30 10
-40 -30 10
-40 -40 0
-30 -40 0
-40 -30 0
-30 -30 0
-40 -40 10
-30 -40 10
-40 -30 10
-30 -30 10
-30 -40 0
-20 -40 0
-30 -30 0
-20 -30 0
-30 -40 10
-20 -40 10
-30 -30 10
-20 -30 10
-20 -40 0
-10 -40 0
-20 -30 0
-10 -30 0
-20 -40 10
-10 -40 10
-20 -30 10
-10 -30 10
-10 -40 0
0 -40 0
-10 -30 0
0 -30 0
-10 -40 10
0 -40 10
-10 -30 10
0 -30 10
0 -40 0
10 -40 0
0 -30 0
10 -30 0
0 -40 10
10 -40 10
0 -30 10
10 -30 10
10 -40 0
20 -40 0
10 -30 0
20 -30 0
10 -40 10
20 -40 10
10 -30 10
20 -30 10
20 -40 0
30 -40 0
20 -30 0
30 -30 0
20 -40 10
30 -40 10
20 -30 10
30 -30 10
30 -40 0
40 -40 0
30 -30 0
40 -30 0
30 -40 10
40 -40 10
30 -30 10
40 -30 10
40 -40 0
50 -40 0
40 -30 0
50 -30 0
40 -40 10
50 -40 10
40 -30 10
50 -30 10
-50 -30 0
-40 -30 0
-50 -20 0
-40 -20 0
-50 -30 10
-40 -30 10
-50 -20 10
-40 -20 10
-40 -30 0
-30 -30 0
-40 -20 0
-30 -20 0
-40 -30 10
-30 -30 10
-40 -20 10
-30 -20 10
-30 -30 0
-20 -30 0
-30 -20 0
-20 -20 0
-30 -30 10
-20 -30 10
-30 -20 10
-20 -20 10
-20 -30 0
-10 -30 0
-20 -20 0
-10 -20 0
-20 -30 10
-10 -30 10
-20 -20 10
-10 -20 10
-10 -30 0
0 -30 0
-10 -20 0
0 -20 0
-10 -30 10
0 -30 10
-10 -20 10
0 -20 10
0 -30 0
10 -30 0
0 -20 0
10 -20 0
0 -30 10
10 -30 10
0 -20 10
10 -20 10
-50 -20 0
-40 -20 0
-50 -10 0
-40 -10 0
-50 -20 10
-40 -20 10
-50 -10 10
-40 -10 10
-40 -20 0
-30 -20 0
-40 -10 0
-30 -10 0
-40 -20 10
-30 -20 10
-40 -10 10
-30 -10 10
-30 -20 0
-20 -20 0
-30 -10 0
-20 -10 0
-30 -20 10
-20 -20 10
-30 -10 10
-20 -10 10
-20 -20 0
-10 -20 0
-20 -10 0
-10 -10 0
-20 -20 10
-10 -20 10
-20 -10 10
-10 -10 10
-10 -20 0
0 -20 0
-10 -10 0
0 -10 0
-10 -20 10
0 -20 10
-10 -10 10
0 -10 10
0 -20 0
10 -20 0
0 -10 0
10 -10 0
0 -20 10
10 -20 10
0 -10 10
10 -10 10
-50 -10 0
-40 -10 0
-50 0 0
-40 0 0
-50 -10 10
-40 -10 10
-50 0 10
-40 0 10
-40 -10 0
-30 -10 0
-40 0 0
-30 0 0
-40 -10 10
-30 -10 10
-40 0 10
-30 0 10
-30 -10 0
-20 -10 0
-30 0 0
-20 0 0
-30 -10 10
-20 -10 10
-30 0 10
-20 0 10
-20 -10 0
-10 -10 0
-20 0 0
-10 0 0
-20 -10 10
-10 -10 10
-20 0 10
-10 0 10
-50 0 0
-40 0 0
-50 10 0
-40 10 0
-50 0 10
-40 0 10
-50 10 10
-40 10 10
-40 0 0
-30 0 0
-40 10 0
-30 10 0
-40 0 10
-30 0 10
-40 10 10
-30 10 10
-30 0 0
-20 0 0
-30 10 0
-20 10 0
-30 0 10
-20 0 10
-30 10 10
-20 10 10
-20 0 0
-10 0 0
-20 10 0
-10 10 0
-20 0 10
-10 0 10
-20 10 10
-10 10 10
-50 10 0
-40 10 0
-50 20 0
-40 20 0
-50 10 10
-40 10 10
-50 20 10
-40 20 10
-40 10 0
-30 10 0
-40 20 0
-30 20 0
-40 10 10
-30 10 10
-40 20 10
-30 20 10
-30 10 0
-20 10 0
-30 20 0
-20 20 0
-30 10 10
-20 10 10
-30 20 10
-20 20 10
-20 10 0
-10 10 0
-20 20 0
-10 20 0
-20 10 10
-10 10 10
-20 20 10
-10 20 10
-10 10 0
0 10 0
-10 20 0
0 20 0
-10 10 10
0 10 10
-10 20 10
0 20 10
0 10 0
10 10 0
0 20 0
10 20 0
0 10 10
10 10 10
0 20 10
10 20 10
-50 20 0
-40 20 0
-50 30 0
-40 30 0
-50 20 10
-40 20 10
-50 30 10
-40 30 10
-40 20 0
-30 20 0
-40 30 0
-30 30 0
-40 20 10
-30 20 10
-40 30 10
-30 30 10
-30 20 0
-20 20 0
-30 30 0
-20 30 0
-30 20 10
-20 20 10
-30 30 10
-20 30 10
-20 20 0
-10 20 0
-20 30 0
-10 30 0
-20 20 10
-10 20 10
-20 30 10
-10 30 10
-10 20 0
0 20 0
-10 30 0
0 30 0
-10 20 10
0 20 10
-10 30 10
0 30 10
0 20 0
10 20 0
0 30 0
10 30 0
0 20 10
10 20 10
0 30 10
10 30 10
-50 30 0
-40 30 0
-50 40 0
-40 40 0
-50 30 10
-40 30 10
-50 40 10
-40 40 10
-40 30 0
-30 30 0
-40 40 0
-30 40 0
-40 30 10
-30 30 10
-40 40 10
-30 40 10
-30 30 0
-20 30 0
-30 40 0
-20 40 0
-30 30 10
-20 30 10
-30 40 10
-20 40 10
-20 30 0
-10 30 0
-20 40 0
-10 40 0
-20 30 10
-10 30 10
-20 40 10
-10 40 10
-10 30 0
0 30 0
-10 40 0
0 40 0
-10 30 10
0 30 10
-10 40 10
0 40 10
0 30 0
10 30 0
0 40 0
10 40 0
0 30 10
10 30 10
0 40 10
10 40 10
10 30 0
20 30 0
10 40 0
20 40 0
10 30 10
20 30 10
10 40 10
20 40 10
20 30 0
30 30 0
20 40 0
30 40 0
20 30 10
30 30 10
20 40 10
30 40 10
30 30 0
40 30 0
30 40 0
40 40 0
30 30 10
40 30 10
30 40 10
40 40 10
40 30 0
50 30 0
40 40 0
50 40 0
40 30 10
50 30 10
40 40 10
50 40 10
-50 40 0
-40 40 0
-50 50 0
-40 50 0
-50 40 10
-40 40 10
-50 50 10
-40 50 10
-40 40 0
-30 40 0
-40 50 0
-30 50 0
-40 40 10
-30 40 10
-40 50 10
-30 50 10
-30 40 0
-20 40 0
-30 50 0
-20 50 0
-30 40 10
-20 40 10
-30 50 10
-20 50 10
-20 40 0
-10 40 0
-20 50 0
-10 50 0
-20 40 10
-10 40 10
-20 50 10
-10 50 10
-10 40 0
0 40 0
-10 50 0
0 50 0
-10 40 10
0 40 10
-10 50 10
0 50 10
0 40 0
10 40 0
0 50 0
10 50 0
0 40 10
10 40 10
0 50 10
10 50 10
10 40 0
20 40 0
10 50 0
20 50 0
10 40 10
20 40 10
10 50 10
20 50 10
20 40 0
30 40 0
20 50 0
30 50 0
20 40 10
30 40 10
20 50 10
30 50 10
30 40 0
40 40 0
30 50 0
40 50 0
30 40 10
40 40 10
30 50 10
40 50 10
40 40 0
50 40 0
40 50 0
50 50 0
40 40 10
50 40 10
40 50 10
50 50 10
-50 -50 10
-40 -50 10
-50 -40 10
-40 -40 10
-50 -50 20
-40 -50 20
-50 -40 20
-40 -40 20
-40 -50 10
-30 -50 10
-40 -40 10
-30 -40 10
-40 -50 20
-30 -50 20
-40 -40 20
-30 -40 20
-30 -50 10
-20 -50 10
-30 -40 10
-20 -40 10
-30 -50 20
-20 -50 20
-30 -40 20
-20 -40 20
-20 -50 10
-10 -50 10
-20 -40 10
-10 -40 10
-20 -50 20
-10 -50 20
-20 -40 20
-10 -40 20
-10 -50 10
0 -50 10
-10 -40 10
0 -40 10
-10 -50 20
0 -50 20
-10 -40 20
0 -40 20
0 -50 10
10 -50 10
0 -40 10
10 -40 10
0 -50 20
10 -50 20
0 -40 20
10 -40 20
10 -50 10
20 -50 10
10 -40 10
20 -40 10
10 -50 20
20 -50 20
10 -40 20
20 -40 20
20 -50 10
30 -50 10
20 -40 10
30 -40 10
20 -50 20
30 -50 20
20 -40 20
30 -40 20
30 -50 10
40 -50 10
30 -40 10
40 -40 10
30 -50 20
40 -50 20
30 -40 20
40 -40 20
40 -50 10
50 -50 10
40 -40 10
50 -40 10
40 -50 20
50 -50 20
40 -40 20
50 -40 20
-50 -40 10
-40 -40 10
-50 -30 10
-40 -30 10
-50 -40 20
-40 -40 20
-50 -30 20
-40 -30 20
-40 -40 10
-30 -40 10
-40 -30 10
-30 -30 10
-40 -40 20
-30 -40 20
-40 -30 20
-30 -30 20
-30 -40 10
-20 -40 10
-30 -30 10
-20 -30 10
-30 -40 20
-20 -40 20
-30 -30 20
-20 -30 20
-20 -40 10
-10 -40 10
-20 -30 10
-10 -30 10
-20 -40 20
-10 -40 20
-20 -30 20
-10 -30 20
-10 -40 10
0 -40 10
-10 -30 10
0 -30 10
-10 -40 20
0 -40 20
-10 -30 20
0 -30 20
0 -40 10
10 -40 10
0 -30 10
10 -30 10
0 -40 20
10 -40 20
0 -30 20
10 -30 20
10 -40 10
20 -40 10
10 -30 10
20 -30 10
10 -40 20
20 -40 20
10 -30 20
20 -30 20
20 -40 10
30 -40 10
20 -30 10
30 -30 10
20 -40 20
30 -40 20
20 -30 20
30 -30 20
30 -40 10
40 -40 10
30 -30 10
40 -30 10
30 -40 20
40 -40 20
30 -30 20
40 -30 20
40 -40 10
50 -40 10
40 -30 10
50 -30 10
40 -40 20
50 -40 20
40 -30 20
50 -30 20
-50 -30 10
-40 -30 10
-50 -20 10
-40 -20 10
-50 -30 20
-40 -30 20
-50 -20 20
-40 -20 20
-40 -30 10
-30 -30 10
-40 -20 10
-30 -20 10
-40 -30 20
-30 -30 20
-40 -20 20
-30 -20 20
-30 -30 10
-20 -30 10
-30 -20 10
-20 -20 10
-30 -30 20
-20 -30 20
-30 -20 20
-20 -20 20
-20 -30 10
-10 -30 10
-20 -20 10
-10 -20 10
-20 -30 20
-10 -30 20
-20 -20 20
-10 -20 20
-10 -30 10
0 -30 10
-10 -20 10
0 -20 10
-10 -30 20
0 -30 20
-10 -20 20
0 -20 20
0 -30 10
10 -30 10
0 -20 10
10 -20 10
0 -30 20
10 -30 20
0 -20 20
10 -20 20
-50 -20 10
-40 -20 10
-50 -10 10
-40 -10 10
-50 -20 20
-40 -20 20
-50 -10 20
-40 -10 20
-40 -20 10
-30 -20 10
-40 -10 10
-30 -10 10
-40 -20 20
-30 -20 20
-40 -10 20
-30 -10 20
-30 -20 10
-20 -20 10
-30 -10 10
-20 -10 10
-30 -20 20
-20 -20 20
-30 -10 20
-20 -10 20
-20 -20 10
-10 -20 10
-20 -10 10
-10 -10 10
-20 -20 20
-10 -20 20
-20 -10 20
-10 -10 20
-10 -20 10
0 -20 10
-10 -10 10
0 -10 10
-10 -20 20
0 -20 20
-10 -10 20
0 -10 20
0 -20 10
10 -20 10
0 -10 10
10 -10 10
0 -20 20
10 -20 20
0 -10 20
10 -10 20
-50 -10 10
-40 -10 10
-50 0 10
-40 0 10
-50 -10 20
-40 -10 20
-50 0 20
-40 0 20
-40 -10 10
-30 -10 10
-40 0 10
-30 0 10
-40 -10 20
-30 -10 20
-40 0 20
-30 0 20
-30 -10 10
-20 -10 10
-30 0 10
-20 0 10
-30 -10 20
-20 -10 20
-30 0 20
-20 0 20
-20 -10 10
-10 -10 10
-20 0 10
-10 0 10
-20 -10 20
-10 -10 20
-20 0 20
-10 0 20
-10 -10 10
0 -10 10
-10 0 10
0 0 10
-10 -10 20
0 -10 20
-10 0 20
0 0 20
0 -10 10
10 -10 10
0 0 10
10 0 10
0 -10 20
10 -10 20
0 0 20
10 0 20
-50 0 10
-40 0 10
-50 10 10
-40 10 10
-50 0 20
-40 0 20
-50 10 20
-40 10 20
-40 0 10
-30 0 10
-40 10 10
-30 10 10
-40 0 20
-30 0 20
-40 10 20
-30 10 20
-30 0 10
-20 0 10
-30 10 10
-20 10 10
-30 0 20
-20 0 20
-30 10 20
-20 10 20
-20 0 10
-10 0 10
-20 10 10
-10 10 10
-20 0 20
-10 0 20
-20 10 20
-10 10 20
-10 0 10
0 0 10
-10 10 10
0 10 10
-10 0 20
0 0 20
-10 10 20
0 10 20
0 0 10
10 0 10
0 10 10
10 10 10
0 0 20
10 0 20
0 10 20
10 10 20
-50 10 10
-40 10 10
-50 20 10
-40 20 10
-50 10 20
-40 10 20
-50 20 20
-40 20 20
-40 10 10
-30 10 10
-40 20 10
-30 20 10
-40 10 20
-30 10 20
-40 20 20
-30 20 20
-30 10 10
-20 10 10
-30 20 10
-20 20 10
-30 10 20
-20 10 20
-30 20 20
-20 20 20
-20 10 10
-10 10 10
-20 20 10
-10 20 10
-20 10 20
-10 10 20
-20 20 20
-10 20 20
-10 10 10
0 10 10
-10 20 10
0 20 10
-10 10 20
0 10 20
-10 20 20
0 20 20
0 10 10
10 10 10
0 20 10
10 20 10
0 10 20
10 10 20
0 20 20
10 20 20
-50 20 10
-40 20 10
-50 30 10
-40 30 10
-50 20 20
-40 20 20
-50 30 20
-40 30 20
-40 20 10
-30 20 10
-40 30 10
-30 30 10
-40 20 20
-30 20 20
-40 30 20
-30 30 20
-30 20 10
-20 20 10
[...]
  <PointData Scalars="scalars">
    <DataArray type="Float32" Name="u" format="ascii">
0.154235 0.168645 0.161477 0.177844 0.153526 0.167716 0.160661 0.176756 0.168645 0.185053 0.177844 0.197399 0.167716 0.183829 0.176756 0.19591 0.185053 0.203917 0.197399 0.220742 0.183829 0.202281 0.19591 0.21868 0.203917 0.225298 0.220742 0.2487 0.202281 0.22311 0.21868 0.24573 0.225298 0.248814 0.2487 0.28153 0.22311 0.245815 0.24573 0.277282 0.248814 0.272714 0.28153 0.31893 0.245815 0.269013 0.277282 0.311932 0.272714 0.295701 0.31893 0.355932 0.269013 0.290654 0.311932 0.347257 0.295701 0.312348 0.355932 0.385689 0.290654 0.306467 0.347257 0.37509 0.312348 0.318424 0.385689 0.397777 0.306467 0.31212 0.37509 0.385709 0.318424 0.310724 0.397777 0.385463 0.31212 0.304846 0.385709 0.374217 0.161477 0.177844 0.167637 0.186169 0.160661 0.176756 0.166722 0.184917 0.177844 0.197399 0.186169 0.208924 0.176756 0.19591 0.184917 0.207169 0.197399 0.220742 0.208924 0.237237 0.19591 0.21868 0.207169 0.234632 0.220742 0.2487 0.237237 0.272585 0.21868 0.24573 0.234632 0.268797 0.2487 0.28153 0.272585 0.318874 0.24573 0.277282 0.268797 0.311898 0.28153 0.31893 0.318874 0.376512 0.277282 0.311932 0.311898 0.365307 0.31893 0.355932 0.376512 0.444202 0.311932 0.347257 0.365307 0.427841 0.355932 0.385689 0.444202 0.506474 0.347257 0.37509 0.427841 0.483587 0.385689 0.397777 0.506474 0.53089 0.37509 0.385709 0.483587 0.504102 0.397777 0.385463 0.53089 0.50407 0.385709 0.374217 0.504102 0.478454 0.167637 0.186169 0.172476 0.192899 0.166722 0.184917 0.171482 0.19149 0.186169 0.208924 0.192899 0.21856 0.184917 0.207169 0.19149 0.216464 0.208924 0.237237 0.21856 0.251628 0.207169 0.234632 0.216464 0.248903 0.237237 0.272585 0.251628 0.295322 0.234632 0.268797 0.248903 0.290315 0.272585 0.318874 0.295322 0.35582 0.268797 0.311898 0.290315 0.347208 0.318874 0.376512 0.35582 0.444812 0.311898 0.365307 0.347208 0.428107 0.172476 0.192899 0.175605 0.197289 0.171482 0.19149 0.174532 0.195834 0.192899 0.21856 0.197289 0.225604 0.19149 0.216464 0.195834 0.222799 0.21856 0.251628 0.225604 0.2613 0.216464 0.248903 0.222799 0.257675 0.251628 0.295322 0.2613 0.312091 0.248903 0.290315 0.257675 0.305733 0.295322 0.35582 0.312091 0.38281 0.290315 0.347208 0.305733 0.374043 0.35582 0.444812 0.38281 0.502992 0.347208 0.428107 0.374043 0.481953 0.175605 0.197289 0.176662 0.198927 0.174532 0.195834 0.175606 0.197291 0.197289 0.225604 0.198927 0.227549 0.195834 0.222799 0.197291 0.225605 0.225604 0.2613 0.227549 0.264875 0.222799 0.257675 0.225605 0.261276 0.2613 0.312091 0.264875 0.320424 0.257675 0.305733 0.261276 0.311654 0.176662 0.198927 0.175605 0.197289 0.175606 0.197291 0.174532 0.195834 0.198927 0.227549 0.197289 0.225604 0.197291 0.225605 0.195834 0.222799 0.227549 0.264875 0.225604 0.261301 0.225605 0.261276 0.222799 0.257675 0.264875 0.320424 0.261301 0.31209 0.261276 0.311654 0.257675 0.305732 0.175605 0.197289 0.172476 0.1929 0.174532 0.195834 0.171482 0.19149 0.197289 0.225604 0.1929 0.218561 0.195834 0.222799 0.19149 0.216465 0.225604 0.261301 0.218561 0.251632 0.222799 0.257675 0.216465 0.248903 0.261301 0.31209 0.251632 0.29533 0.257675 0.305732 0.248903 0.290318 0.31209 0.382805 0.29533 0.355798 0.305732 0.374035 0.290318 0.347241 0.382805 0.502936 0.355798 0.444886 0.374035 0.481942 0.347241 0.427951 0.172476 0.1929 0.167637 0.186169 0.171482 0.19149 0.166722 0.184918 0.1929 0.218561 0.186169 0.208926 0.19149 0.216465 0.184918 0.207169 0.218561 0.251632 0.208926 0.237234 0.216465 0.248903 0.207169 0.234642 0.251632 0.29533 0.237234 0.27265 0.248903 0.290318 0.234642 0.268743 0.29533 0.355798 0.27265 0.31856 0.290318 0.347241 0.268743 0.312457 0.355798 0.444886 0.31856 0.376046 0.347241 0.427951 0.312457 0.366278 0.167637 0.186169 0.161477 0.177844 0.166722 0.184918 0.160661 0.176755 0.186169 0.208926 0.177844 0.1974 0.184918 0.207169 0.176755 0.195911 0.208926 0.237234 0.1974 0.220748 0.207169 0.234642 0.195911 0.218678 0.237234 0.27265 0.220748 0.248706 0.234642 0.268743 0.218678 0.245757 0.27265 0.31856 0.248706 0.281483 0.268743 0.312457 0.245757 0.277234 0.31856 0.376046 0.281483 0.318611 0.312457 0.366278 0.277234 0.312509 0.376046 0.444294 0.318611 0.355921 0.366278 0.427695 0.312509 0.347301 0.444294 0.506455 0.355921 0.385696 0.427695 0.483611 0.347301 0.375102 0.506455 0.530897 0.385696 0.397787 0.483611 0.504111 0.375102 0.385721 0.530897 0.504084 0.397787 0.385475 0.504111 0.478469 0.385721 0.374231 0.161477 0.177844 0.154235 0.168645 0.160661 0.176755 0.153526 0.167716 0.177844 0.1974 0.168645 0.185054 0.176755 0.195911 0.167716 0.18383 0.1974 0.220748 0.185054 0.20392 0.195911 0.218678 0.18383 0.202285 0.220748 0.248706 0.20392 0.225301 0.218678 0.245757 0.202285 0.223102 0.248706 0.281483 0.225301 0.248822 0.245757 0.277234 0.223102 0.245864 0.281483 0.318611 0.248822 0.272845 0.277234 0.312509 0.245864 0.268908 0.318611 0.355921 0.272845 0.295722 0.312509 0.347301 0.268908 0.290666 0.355921 0.385696 0.295722 0.312356 0.347301 0.375102 0.290666 0.306475 0.385696 0.397787 0.312356 0.318433 0.375102 0.385721 0.306475 0.31213 0.397787 0.385475 0.318433 0.310734 0.385721 0.374231 0.31213 0.304856 0.153526 0.167716 0.160661 0.176756 0.151456 0.165017 0.158286 0.173603 0.167716 0.183829 0.176756 0.19591 0.165017 0.180293 0.173603 0.191642 0.183829 0.202281 0.19591 0.21868 0.180293 0.1976 0.191642 0.212804 0.202281 0.22311 0.21868 0.24573 0.1976 0.216877 0.212804 0.237477 0.22311 0.245815 0.24573 0.277282 0.216877 0.237566 0.237477 0.265551 0.245815 0.269013 0.277282 0.311932 0.237566 0.258224 0.265551 0.295753 0.269013 0.290654 0.311932 0.347257 0.258224 0.27646 0.295753 0.323733 0.290654 0.306467 0.347257 0.37509 0.27646 0.290555 0.323733 0.347199 0.306467 0.31212 0.37509 0.385709 0.290555 0.295407 0.347199 0.355724 0.31212 0.304846 0.385709 0.374217 0.295407 0.289362 0.355724 0.346872 0.160661 0.176756 0.166722 0.184917 0.158286 0.173603 0.164068 0.181314 0.176756 0.19591 0.184917 0.207169 0.173603 0.191642 0.181314 0.202119 0.19591 0.21868 0.207169 0.234632 0.191642 0.212804 0.202119 0.227356 0.21868 0.24573 0.234632 0.268797 0.212804 0.237477 0.227356 0.258129 0.24573 0.277282 0.268797 0.311898 0.237477 0.265551 0.258129 0.29571 0.277282 0.311932 0.311898 0.365307 0.265551 0.295753 0.29571 0.339719 0.311932 0.347257 0.365307 0.427841 0.295753 0.323733 0.339719 0.386798 0.347257 0.37509 0.427841 0.483587 0.323733 0.347199 0.386798 0.427566 0.37509 0.385709 0.483587 0.504102 0.347199 0.355724 0.427566 0.444568 0.385709 0.374217 0.504102 0.478454 0.355724 0.346872 0.444568 0.429632 0.166722 0.184917 0.171482 0.19149 0.164068 0.181314 0.168591 0.187469 0.184917 0.207169 0.19149 0.216464 0.181314 0.202119 0.187469 0.210767 0.207169 0.234632 0.216464 0.248903 0.202119 0.227356 0.210767 0.239887 0.234632 0.268797 0.248903 0.290315 0.227356 0.258129 0.239887 0.276202 0.268797 0.311898 0.290315 0.347208 0.258129 0.29571 0.276202 0.323671 0.311898 0.365307 0.347208 0.428107 0.29571 0.339719 0.323671 0.386662 0.171482 0.19149 0.174532 0.195834 0.168591 0.187469 0.171487 0.191496 0.19149 0.216464 0.195834 0.222799 0.187469 0.210767 0.191496 0.216468 0.216464 0.248903 0.222799 0.257675 0.210767 0.239887 0.216468 0.248901 0.248903 0.290315 0.257675 0.305733 0.239887 0.276202 0.248901 0.290313 0.290315 0.347208 0.305733 0.374043 0.276202 0.323671 0.290313 0.347076 0.347208 0.428107 0.374043 0.481953 0.323671 0.386662 0.347076 0.427962 0.174532 0.195834 0.175606 0.197291 0.171487 0.191496 0.172481 0.192907 0.195834 0.222799 0.197291 0.225605 0.191496 0.216468 0.192907 0.218562 0.222799 0.257675 0.225605 0.261276 0.216468 0.248901 0.218562 0.25165 0.257675 0.305733 0.261276 0.311654 0.248901 0.290313 0.25165 0.295376 0.305733 0.374043 0.311654 0.386359 0.290313 0.347076 0.295376 0.355837 0.374043 0.481953 0.386359 0.506481 0.347076 0.427962 0.355837 0.443971 0.175606 0.197291 0.174532 0.195834 0.172481 0.192907 0.171486 0.191496 0.197291 0.225605 0.195834 0.222799 0.192907 0.218562 0.191496 0.216468 0.225605 0.261276 0.222799 0.257675 0.218562 0.25165 0.216468 0.2489 0.261276 0.311654 0.257675 0.305732 0.25165 0.295376 0.2489 0.290311 0.311654 0.386359 0.305732 0.374035 0.295376 0.355837 0.290311 0.347071 0.386359 0.506481 0.374035 0.481942 0.355837 0.443971 0.347071 0.427941 0.174532 0.195834 0.171482 0.19149 0.171486 0.191496 0.168591 0.187468 0.195834 0.222799 0.19149 0.216465 0.191496 0.216468 0.187468 0.210767 0.222799 0.257675 0.216465 0.248903 0.216468 0.2489 0.210767 0.239887 0.257675 0.305732 0.248903 0.290318 0.2489 0.290311 0.239887 0.276195 0.305732 0.374035 0.290318 0.347241 0.290311 0.347071 0.276195 0.323683 0.374035 0.481942 0.347241 0.427951 0.347071 0.427941 0.323683 0.3867 0.171482 0.19149 0.166722 0.184918 0.168591 0.187468 0.164068 0.181314 0.19149 0.216465 0.184918 0.207169 0.187468 0.210767 0.181314 0.202119 0.216465 0.248903 0.207169 0.234642 0.210767 0.239887 0.202119 0.227352 0.248903 0.290318 0.234642 0.268743 0.239887 0.276195 0.227352 0.258154 0.290318 0.347241 0.268743 0.312457 0.276195 0.323683 0.258154 0.295571 0.347241 0.427951 0.312457 0.366278 0.323683 0.3867 0.295571 0.339477 0.166722 0.184918 0.160661 0.176755 0.164068 0.181314 0.158286 0.173602 0.184918 0.207169 0.176755 0.195911 0.181314 0.202119 0.173602 0.191641 0.207169 0.234642 0.195911 0.218678 0.202119 0.227352 0.191641 0.212804 0.234642 0.268743 0.218678 0.245757 0.227352 0.258154 0.212804 0.237475 0.268743 0.312457 0.245757 0.277234 0.258154 0.295571 0.237475 0.265539 0.312457 0.366278 0.277234 0.312509 0.295571 0.339477 0.265539 0.295613 0.366278 0.427695 0.312509 0.347301 0.339477 0.386842 0.295613 0.323752 0.427695 0.483611 0.347301 0.375102 0.386842 0.427558 0.323752 0.347206 0.483611 0.504111 0.375102 0.385721 0.427558 0.444611 0.347206 0.355739 0.504111 0.478469 0.385721 0.374231 0.444611 0.42971 0.355739 0.34689 0.160661 0.176755 0.153526 0.167716 0.158286 0.173602 0.151455 0.165016 0.176755 0.195911 0.167716 0.18383 0.173602 0.191641 0.165016 0.180293 0.195911 0.218678 0.18383 0.202285 0.191641 0.212804 0.180293 0.197599 0.218678 0.245757 0.202285 0.223102 0.212804 0.237475 0.197599 0.216874 0.245757 0.277234 0.223102 0.245864 0.237475 0.265539 0.216874 0.237564 0.277234 0.312509 0.245864 0.268908 0.265539 0.295613 0.237564 0.258277 0.312509 0.347301 0.268908 0.290666 0.295613 0.323752 0.258277 0.276452 0.347301 0.375102 0.290666 0.306475 0.323752 0.347206 0.276452 0.29056 0.375102 0.385721 0.306475 0.31213 0.347206 0.355739 0.29056 0.295417 0.385721 0.374231 0.31213 0.304856 0.355739 0.34689 0.295417 0.289373 0.151456 0.165017 0.158286 0.173603 0.14818 0.160788 0.154547 0.168698 0.165017 0.180293 0.173603 0.191642 0.160788 0.174818 0.168698 0.185103 0.180293 0.1976 0.191642 0.212804 0.174818 0.190458 0.185103 0.203962 0.1976 0.216877 0.212804 0.237477 0.190458 0.207538 0.203962 0.225374 0.216877 0.237566 0.237477 0.265551 0.207538 0.225459 0.225374 0.24895 0.237566 0.258224 0.265551 0.295753 0.225459 0.242939 0.24895 0.273282 0.258224 0.27646 0.295753 0.323733 0.242939 0.258221 0.273282 0.295574 0.27646 0.290555 0.323733 0.347199 0.258221 0.268755 0.295574 0.312406 0.290555 0.295407 0.347199 0.355724 0.268755 0.272557 0.312406 0.318407 0.295407 0.289362 0.355724 0.346872 0.272557 0.268208 0.318407 0.312214 0.158286 0.173603 0.164068 0.181314 0.154547 0.168698 0.159914 0.175745 0.173603 0.191642 0.181314 0.202119 0.168698 0.185103 0.175745 0.194476 0.191642 0.212804 0.202119 0.227356 0.185103 0.203962 0.194476 0.216662 0.212804 0.237477 0.227356 0.258129 0.203962 0.225374 0.216662 0.242852 0.237477 0.265551 0.258129 0.29571 0.225374 0.24895 0.242852 0.273244 0.265551 0.295753 0.29571 0.339719 0.24895 0.273282 0.273244 0.306726 0.295753 0.323733 0.339719 0.386798 0.273282 0.295574 0.306726 0.339424 0.323733 0.347199 0.386798 0.427566 0.295574 0.312406 0.339424 0.366214 0.347199 0.355724 0.427566 0.444568 0.312406 0.318407 0.366214 0.375967 0.355724 0.346872 0.444568 0.429632 0.318407 0.312214 0.375967 0.366367 0.164068 0.181314 0.168591 0.187469 0.159914 0.175745 0.164086 0.181329 0.181314 0.202119 0.187469 0.210767 0.175745 0.194476 0.181329 0.202124 0.202119 0.227356 0.210767 0.239887 0.194476 0.216662 0.202124 0.227339 0.227356 0.258129 0.239887 0.276202 0.216662 0.242852 0.227339 0.258065 0.258129 0.29571 0.276202 0.323671 0.242852 0.273244 0.258065 0.295655 0.29571 0.339719 0.323671 0.386662 0.273244 0.306726 0.295655 0.339592 0.168591 0.187469 0.171487 0.191496 0.164086 0.181329 0.166746 0.18494 0.187469 0.210767 0.191496 0.216468 0.181329 0.202124 0.18494 0.207175 0.210767 0.239887 0.216468 0.248901 0.202124 0.227339 0.207175 0.234644 0.239887 0.276202 0.248901 0.290313 0.227339 0.258065 0.234644 0.268712 0.276202 0.323671 0.290313 0.347076 0.258065 0.295655 0.268712 0.311241 0.323671 0.386662 0.347076 0.427962 0.295655 0.339592 0.311241 0.365399 0.171487 0.191496 0.172481 0.192907 0.166746 0.18494 0.167661 0.186192 0.191496 0.216468 0.192907 0.218562 0.18494 0.207175 0.186192 0.208939 0.216468 0.248901 0.218562 0.25165 0.207175 0.234644 0.208939 0.237196 0.248901 0.290313 0.25165 0.295376 0.234644 0.268712 0.237196 0.273207 0.290313 0.347076 0.295376 0.355837 0.268712 0.311241 0.273207 0.318272 0.347076 0.427962 0.355837 0.443971 0.311241 0.365399 0.318272 0.376501 0.172481 0.192907 0.171486 0.191496 0.167661 0.186192 0.166745 0.184939 0.192907 0.218562 0.191496 0.216468 0.186192 0.208939 0.184939 0.207175 0.218562 0.25165 0.216468 0.2489 0.208939 0.237196 0.207175 0.234643 0.25165 0.295376 0.2489 0.290311 0.237196 0.273207 0.234643 0.268709 0.295376 0.355837 0.290311 0.347071 0.273207 0.318272 0.268709 0.311236 0.355837 0.443971 0.347071 0.427941 0.318272 0.376501 0.311236 0.365396 0.171486 0.191496 0.168591 0.187468 0.166745 0.184939 0.164085 0.181328 0.191496 0.216468 0.187468 0.210767 0.184939 0.207175 0.181328 0.202123 0.216468 0.2489 0.210767 0.239887 0.207175 0.234643 0.202123 0.227336 0.2489 0.290311 0.239887 0.276195 0.234643 0.268709 0.227336 0.258058 0.290311 0.347071 0.276195 0.323683 0.268709 0.311236 0.258058 0.295634 0.347071 0.427941 0.323683 0.3867 0.311236 0.365396 0.295634 0.339561 0.168591 0.187468 0.164068 0.181314 0.164085 0.181328 0.159913 0.175744 0.187468 0.210767 0.181314 0.202119 0.181328 0.202123 0.175744 0.194474 0.210767 0.239887 0.202119 0.227352 0.202123 0.227336 0.194474 0.216661 0.239887 0.276195 0.227352 0.258154 0.227336 0.258058 0.216661 0.242835 0.276195 0.323683 0.258154 0.295571 0.258058 0.295634 0.242835 0.273218 0.323683 0.3867 0.295571 0.339477 0.295634 0.339561 0.273218 0.306705 0.164068 0.181314 0.158286 0.173602 0.159913 0.175744 0.154546 0.168696 0.181314 0.202119 0.173602 0.191641 0.175744 0.194474 0.168696 0.185101 0.202119 0.227352 0.191641 0.212804 0.194474 0.216661 0.185101 0.203958 0.227352 0.258154 0.212804 0.237475 0.216661 0.242835 0.203958 0.225364 0.258154 0.295571 0.237475 0.265539 0.242835 0.273218 0.225364 0.248918 0.295571 0.339477 0.265539 0.295613 0.273218 0.306705 0.248918 0.273258 0.339477 0.386842 0.295613 0.323752 0.306705 0.339391 0.273258 0.295555 0.386842 0.427558 0.323752 0.347206 0.339391 0.366234 0.295555 0.31241 0.427558 0.444611 0.347206 0.355739 0.366234 0.375977 0.31241 0.318417 0.444611 0.42971 0.355739 0.34689 0.375977 0.366323 0.318417 0.312225 0.158286 0.173602 0.151455 0.165016 0.154546 0.168696 0.148179 0.160787 0.173602 0.191641 0.165016 0.180293 0.168696 0.185101 0.160787 0.174816 0.191641 0.212804 0.180293 0.197599 0.185101 0.203958 0.174816 0.190455 0.212804 0.237475 0.197599 0.216874 0.203958 0.225364 0.190455 0.207529 0.237475 0.265539 0.216874 0.237564 0.225364 0.248918 0.207529 0.225444 0.265539 0.295613 0.237564 0.258277 0.248918 0.273258 0.225444 0.242911 0.295613 0.323752 0.258277 0.276452 0.273258 0.295555 0.242911 0.258214 0.323752 0.347206 0.276452 0.29056 0.295555 0.31241 0.258214 0.268756 0.347206 0.355739 0.29056 0.295417 0.31241 0.318417 0.268756 0.272563 0.355739 0.34689 0.295417 0.289373 0.318417 0.312225 0.272563 0.268217 0.14818 0.160788 0.154547 0.168698 0.143921 0.155369 0.149722 0.16247 0.160788 0.174818 0.168698 0.185103 0.155369 0.16791 0.16247 0.176963 0.174818 0.190458 0.185103 0.203962 0.16791 0.181619 0.176963 0.19322 0.190458 0.207538 0.203962 0.225374 0.181619 0.196241 0.19322 0.211117 0.207538 0.225459 0.225374 0.24895 0.196241 0.211184 0.211117 0.230089 0.225459 0.242939 0.24895 0.273282 0.211184 0.225413 0.230089 0.248896 0.242939 0.258221 0.273282 0.295574 0.225413 0.237478 0.248896 0.265439 0.258221 0.268755 0.295574 0.312406 0.237478 0.245699 0.265439 0.277085 0.268755 0.272557 0.312406 0.318407 0.245699 0.248562 0.277085 0.281241 0.272557 0.268208 0.318407 0.312214 0.248562 0.245293 0.281241 0.27692 0.154547 0.168698 0.159914 0.175745 0.149722 0.16247 0.154587 0.168735 0.168698 0.185103 0.175745 0.194476 0.16247 0.176963 0.168735 0.185101 0.185103 0.203962 0.194476 0.216662 0.176963 0.19322 0.185101 0.203934 0.203962 0.225374 0.216662 0.242852 0.19322 0.211117 0.203934 0.22532 0.225374 0.24895 0.242852 0.273244 0.211117 0.230089 0.22532 0.248882 0.24895 0.273282 0.273244 0.306726 0.230089 0.248896 0.248882 0.273192 0.273282 0.295574 0.306726 0.339424 0.248896 0.265439 0.273192 0.295533 0.295574 0.312406 0.339424 0.366214 0.265439 0.277085 0.295533 0.311736 0.312406 0.318407 0.366214 0.375967 0.277085 0.281241 0.311736 0.31778 0.318407 0.312214 0.375967 0.366367 0.281241 0.27692 0.31778 0.312316 0.159914 0.175745 0.164086 0.181329 0.154587 0.168735 0.158346 0.173659 0.175745 0.194476 0.181329 0.202124 0.168735 0.185101 0.173659 0.191645 0.194476 0.216662 0.202124 0.227339 0.185101 0.203934 0.191645 0.212764 0.216662 0.242852 0.227339 0.258065 0.203934 0.22532 0.212764 0.23737 0.242852 0.273244 0.258065 0.295655 0.22532 0.248882 0.23737 0.265369 0.273244 0.306726 0.295655 0.339592 0.248882 0.273192 0.265369 0.29561 0.306726 0.339424 0.339592 0.386725 0.273192 0.295533 0.29561 0.323561 0.339424 0.366214 0.386725 0.427612 0.295533 0.311736 0.323561 0.347035 0.366214 0.375967 0.427612 0.444191 0.311736 0.31778 0.347035 0.35564 0.375967 0.366367 0.444191 0.428649 0.31778 0.312316 0.35564 0.3469 0.164086 0.181329 0.166746 0.18494 0.158346 0.173659 0.16073 0.176821 0.181329 0.202124 0.18494 0.207175 0.173659 0.191645 0.176821 0.195919 0.202124 0.227339 0.207175 0.234644 0.191645 0.212764 0.195919 0.218654 0.227339 0.258065 0.234644 0.268712 0.212764 0.23737 0.218654 0.245632 0.258065 0.295655 0.268712 0.311241 0.23737 0.265369 0.245632 0.276969 0.295655 0.339592 0.311241 0.365399 0.265369 0.29561 0.276969 0.311198 0.339592 0.386725 0.365399 0.427735 0.29561 0.323561 0.311198 0.347002 0.386725 0.427612 0.427735 0.483283 0.323561 0.347035 0.347002 0.374916 0.427612 0.444191 0.483283 0.505823 0.347035 0.35564 0.374916 0.3858 0.444191 0.428649 0.505823 0.482502 0.35564 0.3469 0.3858 0.374578 0.166746 0.18494 0.167661 0.186192 0.16073 0.176821 0.161547 0.177913 0.18494 0.207175 0.186192 0.208939 0.176821 0.195919 0.177913 0.197407 0.207175 0.234644 0.208939 0.237196 0.195919 0.218654 0.197407 0.220742 0.234644 0.268712 0.237196 0.273207 0.218654 0.245632 0.220742 0.248635 0.268712 0.311241 0.273207 0.318272 0.245632 0.276969 0.248635 0.281642 0.311241 0.365399 0.318272 0.376501 0.276969 0.311198 0.281642 0.318226 0.365399 0.427735 0.376501 0.444056 0.311198 0.347002 0.318226 0.355669 0.427735 0.483283 0.444056 0.506398 0.347002 0.374916 0.355669 0.385472 0.483283 0.505823 0.506398 0.530908 0.374916 0.3858 0.385472 0.39764 0.505823 0.482502 0.530908 0.504104 0.3858 0.374578 0.39764 0.385408 0.167661 0.186192 0.166745 0.184939 0.161547 0.177913 0.160729 0.176821 0.186192 0.208939 0.184939 0.207175 0.177913 0.197407 0.176821 0.195918 0.208939 0.237196 0.207175 0.234643 0.197407 0.220742 0.195918 0.218652 0.237196 0.273207 0.234643 0.268709 0.220742 0.248635 0.218652 0.245628 0.273207 0.318272 0.268709 0.311236 0.248635 0.281642 0.245628 0.276964 0.318272 0.376501 0.311236 0.365396 0.281642 0.318226 0.276964 0.311189 0.376501 0.444056 0