<?xml version="1.0" ?> 
<!-- 
# vtk DataFile Version 3.0
#This file was generated by the deal.II library on 16:50:43 at 2019/11/27
-->
<VTKFile type="UnstructuredGrid" version="0.1" byte_order="LittleEndian">
<UnstructuredGrid>
<Piece NumberOfPoints="30792" NumberOfCells="3849" >
  <Points>
    <DataArray type="Float32" NumberOfComponents="3" format="ascii">
-50 -50 0
-40 -50 0
-50 -40 0
-40 -40 0
-50 -50 10
-40 -50 10
-50 -40 10
-40 -40 10
-40 -50 0
-30 -50 0
-40 -40 0
-30 -40 0
-40 -50 10
-30 -50 10
-40 -40 10
-30 -40 10
-30 -50 0
-20 -50 0
-30 -40 0
-20 -40 0
-30 -50 10
-20 -50 10
-30 -40 10
-20 -40 10
-20 -50 0
-10 -50 0
-20 -40 0
-10 -40 0
-20 -50 10
-10 -50 10
-20 -40 10
-10 -40 10
-10 -50 0
0 -50 0
-10 -40 0
0 -40 0
-10 -50 10
0 -50 10
-10 -40 10
0 -40 10
0 -50 0
10 -50 0
0 -40 0
10 -40 0
0 -50 10
10 -50 10
0 -40 10
10 -40 10
10 -50 0
20 -50 0
10 -40 0
20 -40 0
10 -50 10
20 -50 10
10 -40 10
20 -40 10
20 -50 0
30 -50 0
20 -40 0
30 -40 0
20 -50 10
30 -50 10
20 -40 10
30 -40 10
30 -50 0
40 -50 0
30 -40 0
40 -40 0
30 -50 10
40 -50 10
30 -40 10
40 -40 10
40 -50 0
50 -50 0
40 -40 0
50 -40 0
40 -50 10
50 -50 10
40 -40 10
50 -40 10
-50 -40 0
-40 -40 0
-50 -30 0
-40 -30 0
-50 -40 10
-40 -40 10
-50 -30 10
-40 -30 10
-40 -40 0
-30 -40 0
-40 -30 0
-30 -30 0
-40 -40 10
-30 -40 10
-40 -30 10
-30 -30 10
-30 -40 0
-20 -40 0
-30 -30 0
-20 -30 0
-30 -40 10
-20 -40 10
-30 -30 10
-20 -30 10
-20 -40 0
-10 -40 0
-20 -30 0
-10 -30 0
-20 -40 10
-10 -40 10
-20 -30 10
-10 -30 10
-10 -40 0
0 -40 0
-10 -30 0
0 -30 0
-10 -40 10
0 -40 10
-10 -30 10
0 -30 10
0 -40 0
10 -40 0
0 -30 0
10 -30 0
0 -40 10
10 -40 10
0 -30 10
10 -30 10
10 -40 0
20 -40 0
10 -30 0
20 -30 0
10 -40 10
20 -40 10
10 -30 10
20 -30 10
20 -40 0
30 -40 0
20 -30 0
30 -30 0
20 -40 10
30 -40 10
20 -30 10
30 -30 10
30 -40 0
40 -40 0
30 -30 0
40 -30 0
30 -40 10
40 -40 10
30 -30 10
40 -30 10
40 -40 0
50 -40 0
40 -30 0
50 -30 0
40 -40 10
50 -40 10
40 -30 10
50 -30 10
-50 -30 0
-40 -30 0
-50 -20 0
-40 -20 0
-50 -30 10
-40 -30 10
-50 -20 10
-40 -20 10
-40 -30 0
-30 -30 0
-40 -20 0
-30 -20 0
-40 -30 10
-30 -30 10
-40 -20 10
-30 -20 10
0 -30 0
10 -30 0
0 -20 0
10 -20 0
0 -30 10
10 -30 10
0 -20 10
10 -20 10
10 -30 0
20 -30 0
10 -20 0
20 -20 0
10 -30 10
20 -30 10
10 -20 10
20 -20 10
20 -30 0
30 -30 0
20 -20 0
30 -20 0
20 -30 10
30 -30 10
20 -20 10
30 -20 10
30 -30 0
40 -30 0
30 -20 0
40 -20 0
30 -30 10
40 -30 10
30 -20 10
40 -20 10
40 -30 0
50 -30 0
40 -20 0
50 -20 0
40 -30 10
50 -30 10
40 -20 10
50 -20 10
0 -20 0
10 -20 0
0 -10 0
10 -10 0
0 -20 10
10 -20 10
0 -10 10
10 -10 10
10 -20 0
20 -20 0
10 -10 0
20 -10 0
10 -20 10
20 -20 10
10 -10 10
20 -10 10
20 -20 0
30 -20 0
20 -10 0
30 -10 0
20 -20 10
30 -20 10
20 -10 10
30 -10 10
30 -20 0
40 -20 0
30 -10 0
40 -10 0
30 -20 10
40 -20 10
30 -10 10
40 -10 10
40 -20 0
50 -20 0
40 -10 0
50 -10 0
40 -20 10
50 -20 10
40 -10 10
50 -10 10
30 -10 0
40 -10 0
30 0 0
40 0 0
30 -10 10
40 -10 10
30 0 10
40 0 10
40 -10 0
50 -10 0
40 0 0
50 0 0
40 -10 10
50 -10 10
40 0 10
50 0 10
30 0 0
40 0 0
30 10 0
40 10 0
30 0 10
40 0 10
30 10 10
40 10 10
40 0 0
50 0 0
40 10 0
50 10 0
40 0 10
50 0 10
40 10 10
50 10 10
0 10 0
10 10 0
0 20 0
10 20 0
0 10 10
10 10 10
0 20 10
10 20 10
10 10 0
20 10 0
10 20 0
20 20 0
10 10 10
20 10 10
10 20 10
20 20 10
20 10 0
30 10 0
20 20 0
30 20 0
20 10 10
30 10 10
20 20 10
30 20 10
30 10 0
40 10 0
30 20 0
40 20 0
30 10 10
40 10 10
30 20 10
40 20 10
40 10 0
50 10 0
40 20 0
50 20 0
40 10 10
50 10 10
40 20 10
50 20 10
-50 20 0
-40 20 0
-50 30 0
-40 30 0
-50 20 10
-40 20 10
-50 30 10
-40 30 10
0 20 0
10 20 0
0 30 0
10 30 0
0 20 10
10 20 10
0 30 10
10 30 10
10 20 0
20 20 0
10 30 0
20 30 0
10 20 10
20 20 10
10 30 10
20 30 10
20 20 0
30 20 0
20 30 0
30 30 0
20 20 10
30 20 10
20 30 10
30 30 10
30 20 0
40 20 0
30 30 0
40 30 0
30 20 10
40 20 10
30 30 10
40 30 10
40 20 0
50 20 0
40 30 0
50 30 0
40 20 10
50 20 10
40 30 10
50 30 10
-50 30 0
-40 30 0
-50 40 0
-40 40 0
-50 30 10
-40 30 10
-50 40 10
-40 40 10
-40 30 0
-30 30 0
-40 40 0
-30 40 0
-40 30 10
-30 30 10
-40 40 10
-30 40 10
-30 30 0
-20 30 0
-30 40 0
-20 40 0
-30 30 10
-20 30 10
-30 40 10
-20 40 10
-20 30 0
-10 30 0
-20 40 0
-10 40 0
-20 30 10
-10 30 10
-20 40 10
-10 40 10
-10 30 0
0 30 0
-10 40 0
0 40 0
-10 30 10
0 30 10
-10 40 10
0 40 10
0 30 0
10 30 0
0 40 0
10 40 0
0 30 10
10 30 10
0 40 10
10 40 10
10 30 0
20 30 0
10 40 0
20 40 0
10 30 10
20 30 10
10 40 10
20 40 10
20 30 0
30 30 0
20 40 0
30 40 0
20 30 10
30 30 10
20 40 10
30 40 10
30 30 0
40 30 0
30 40 0
40 40 0
30 30 10
40 30 10
30 40 10
40 40 10
40 30 0
50 30 0
40 40 0
50 40 0
40 30 10
50 30 10
40 40 10
50 40 10
-50 40 0
-40 40 0
-50 50 0
-40 50 0
-50 40 10
-40 40 10
-50 50 10
-40 50 10
-40 40 0
-30 40 0
-40 50 0
-30 50 0
-40 40 10
-30 40 10
-40 50 10
-30 50 10
-30 40 0
-20 40 0
-30 50 0
-20 50 0
-30 40 10
-20 40 10
-30 50 10
-20 50 10
-20 40 0
-10 40 0
-20 50 0
-10 50 0
-20 40 10
-10 40 10
-20 50 10
-10 50 10
-10 40 0
0 40 0
-10 50 0
0 50 0
-10 40 10
0 40 10
-10 50 10
0 50 10
0 40 0
10 40 0
0 50 0
10 50 0
0 40 10
10 40 10
0 50 10
10 50 10
10 40 0
20 40 0
10 50 0
20 50 0
10 40 10
20 40 10
10 50 10
20 50 10
20 40 0
30 40 0
20 50 0
30 50 0
20 40 10
30 40 10
20 50 10
30 50 10
30 40 0
40 40 0
30 50 0
40 50 0
30 40 10
40 40 10
30 50 10
40 50 10
40 40 0
50 40 0
40 50 0
50 50 0
40 40 10
50 40 10
40 50 10
50 50 10
-50 -50 10
-40 -50 10
-50 -40 10
-40 -40 10
-50 -50 20
-40 -50 20
-50 -40 20
-40 -40 20
-40 -50 10
-30 -50 10
-40 -40 10
-30 -40 10
-40 -50 20
-30 -50 20
-40 -40 20
-30 -40 20
-30 -50 10
-20 -50 10
-30 -40 10
-20 -40 10
-30 -50 20
-20 -50 20
-30 -40 20
-20 -40 20
-20 -50 10
-10 -50 10
-20 -40 10
-10 -40 10
-20 -50 20
-10 -50 20
-20 -40 20
-10 -40 20
-10 -50 10
0 -50 10
-10 -40 10
0 -40 10
-10 -50 20
0 -50 20
-10 -40 20
0 -40 20
0 -50 10
10 -50 10
0 -40 10
10 -40 10
0 -50 20
10 -50 20
0 -40 20
10 -40 20
10 -50 10
20 -50 10
10 -40 10
20 -40 10
10 -50 20
20 -50 20
10 -40 20
20 -40 20
20 -50 10
30 -50 10
20 -40 10
30 -40 10
20 -50 20
30 -50 20
20 -40 20
30 -40 20
30 -50 10
40 -50 10
30 -40 10
40 -40 10
30 -50 20
40 -50 20
30 -40 20
40 -40 20
40 -50 10
50 -50 10
40 -40 10
50 -40 10
40 -50 20
50 -50 20
40 -40 20
50 -40 20
-50 -40 10
-40 -40 10
-50 -30 10
-40 -30 10
-50 -40 20
-40 -40 20
-50 -30 20
-40 -30 20
-40 -40 10
-30 -40 10
-40 -30 10
-30 -30 10
-40 -40 20
-30 -40 20
-40 -30 20
-30 -30 20
-30 -40 10
-20 -40 10
-30 -30 10
-20 -30 10
-30 -40 20
-20 -40 20
-30 -30 20
-20 -30 20
-20 -40 10
-10 -40 10
-20 -30 10
-10 -30 10
-20 -40 20
-10 -40 20
-20 -30 20
-10 -30 20
-10 -40 10
0 -40 10
-10 -30 10
0 -30 10
-10 -40 20
0 -40 20
-10 -30 20
0 -30 20
0 -40 10
10 -40 10
0 -30 10
10 -30 10
0 -40 20
10 -40 20
0 -30 20
10 -30 20
10 -40 10
20 -40 10
10 -30 10
20 -30 10
10 -40 20
20 -40 20
10 -30 20
20 -30 20
20 -40 10
30 -40 10
20 -30 10
30 -30 10
20 -40 20
30 -40 20
20 -30 20
30 -30 20
30 -40 10
40 -40 10
30 -30 10
40 -30 10
30 -40 20
40 -40 20
30 -30 20
40 -30 20
40 -40 10
50 -40 10
40 -30 10
50 -30 10
40 -40 20
50 -40 20
40 -30 20
50 -30 20
-50 -30 10
-40 -30 10
-50 -20 10
-40 -20 10
-50 -30 20
-40 -30 20
-50 -20 20
-40 -20 20
-40 -30 10
-30 -30 10
-40 -20 10
-30 -20 10
-40 -30 20
-30 -30 20
-40 -20 20
-30 -20 20
0 -30 10
10 -30 10
0 -20 10
10 -20 10
0 -30 20
10 -30 20
0 -20 20
10 -20 20
10 -30 10
20 -30 10
10 -20 10
20 -20 10
10 -30 20
20 -30 20
10 -20 20
20 -20 20
20 -30 10
30 -30 10
20 -20 10
30 -20 10
20 -30 20
30 -30 20
20 -20 20
30 -20 20
30 -30 10
40 -30 10
30 -20 10
40 -20 10
30 -30 20
40 -30 20
30 -20 20
40 -20 20
40 -30 10
50 -30 10
40 -20 10
50 -20 10
40 -30 20
50 -30 20
40 -20 20
50 -20 20
0 -20 10
10 -20 10
0 -10 10
10 -10 10
0 -20 20
10 -20 20
0 -10 20
10 -10 20
10 -20 10
20 -20 10
10 -10 10
20 -10 10
10 -20 20
20 -20 20
10 -10 20
20 -10 20
20 -20 10
30 -20 10
20 -10 10
30 -10 10
20 -20 20
30 -20 20
20 -10 20
30 -10 20
30 -20 10
40 -20 10
30 -10 10
40 -10 10
30 -20 20
40 -20 20
30 -10 20
40 -10 20
40 -20 10
50 -20 10
40 -10 10
50 -10 10
40 -20 20
50 -20 20
40 -10 20
50 -10 20
10 -10 10
20 -10 10
10 0 10
20 0 10
10 -10 20
20 -10 20
10 0 20
20 0 20
20 -10 10
30 -10 10
20 0 10
30 0 10
20 -10 20
30 -10 20
20 0 20
30 0 20
30 -10 10
40 -10 10
30 0 10
40 0 10
30 -10 20
40 -10 20
30 0 20
40 0 20
40 -10 10
50 -10 10
40 0 10
50 0 10
40 -10 20
50 -10 20
40 0 20
50 0 20
10 0 10
20 0 10
10 10 10
20 10 10
10 0 20
20 0 20
10 10 20
20 10 20
20 0 10
30 0 10
20 10 10
30 10 10
20 0 20
30 0 20
20 10 20
30 10 20
30 0 10
40 0 10
30 10 10
40 10 10
30 0 20
40 0 20
30 10 20
40 10 20
40 0 10
50 0 10
40 10 10
50 10 10
40 0 20
50 0 20
40 10 20
50 10 20
0 10 10
10 10 10
0 20 10
10 20 10
0 10 20
10 10 20
0 20 20
10 20 20
10 10 10
20 10 10
10 20 10
20 20 10
10 10 20
20 10 20
10 20 20
20 20 20
20 10 10
30 10 10
20 20 10
30 20 10
20 10 20
30 10 20
20 20 20
30 20 20
30 10 10
40 10 10
30 20 10
40 20 10
30 10 20
40 10 20
30 20 20
40 20 20
40 10 10
50 10 10
40 20 10
50 20 10
40 10 20
50 10 20
40 20 20
50 20 20
-50 20 10
-40 20 10
-50 30 10
-40 30 10
-50 20 20
-40 20 20
-50 30 20
-40 30 20
0 20 10
10 20 10
0 30 10
10 30 10
0 20 20
10 20 20
0 30 20
10 30 20
10 20 10
20 20 10
10 30 10
20 30 10
10 20 20
20 20 20
10 30 20
20 30 20
20 20 10
30 20 10
20 30 10
30 30 10
20 20 20
30 20 20
20 30 20
30 30 20
30 20 10
40 20 10
30 30 10
40 30 10
30 20 20
40 20 20
30 30 20
40 30 20
40 20 10
50 20 10
40 30 10
50 30 10
40 20 20
50 20 20
40 30 20
50 30 20
-50 30 10
-40 30 10
-50 40 10
-40 40 10
-50 30 20
-40 30 20
-50 40 20
-40 40 20
-40 30 10
-30 30 10
-40 40 10
-30 40 10
-40 30 20
-30 30 20
-40 40 20
-30 40 20
-30 30 10
-20 30 10
-30 40 10
-20 40 10
-30 30 20
-20 30 20
-30 40 20
-20 40 20
-20 30 10
-10 30 10
-20 40 10
-10 40 10
-20 30 20
-10 30 20
-20 40 20
-10 40 20
-10 30 10
0 30 10
-10 40 10
0 40 10
-10 30 20
0 30 20
-10 40 20
0 40 20
0 30 10
10 30 10
0 40 10
10 40 10
0 30 20
10 30 20
0 40 20
10 40 20
10 30 10
20 30 10
10 40 10
20 40 10
10 30 20
20 30 20
10 40 20
20 40 20
20 30 10
30 30 10
20 40 10
30 40 10
20 30 20
30 30 20
20 40 20
30 40 20
30 30 10
40 30 10
30 40 10
40 40 10
30 30 20
40 30 20
30 40 20
40 40 20
40 30 10
50 30 10
40 40 10
50 40 10
40 30 20
50 30 20
40 40 20
[...]
  <PointData Scalars="scalars">
    <DataArray type="Float32" Name="u" format="ascii">
0.270853 0.295365 0.317985 0.355693 0.26736 0.289406 0.312121 0.346929 0.295365 0.312488 0.355693 0.385924 0.289406 0.30641 0.346929 0.375016 0.312488 0.318779 0.385924 0.397746 0.30641 0.31251 0.375016 0.385911 0.318779 0.312486 0.397746 0.385913 0.31251 0.306497 0.385911 0.375084 0.312486 0.294959 0.385913 0.356274 0.306497 0.289971 0.375084 0.347644 0.294959 0.273092 0.356274 0.318308 0.289971 0.269204 0.347644 0.31223 0.273092 0.248817 0.318308 0.281603 0.269204 0.245885 0.31223 0.277329 0.248817 0.225338 0.281603 0.248721 0.245885 0.223141 0.277329 0.245802 0.225338 0.203886 0.248721 0.220755 0.223141 0.202259 0.245802 0.218686 0.203886 0.184583 0.220755 0.197404 0.202259 0.183377 0.218686 0.195926 0.317985 0.355693 0.375333 0.441729 0.312121 0.346929 0.365026 0.425409 0.355693 0.385924 0.441729 0.503475 0.346929 0.375016 0.425409 0.479978 0.385924 0.397746 0.503475 0.530023 0.375016 0.385911 0.479978 0.503065 0.397746 0.385913 0.530023 0.502963 0.385911 0.375084 0.503065 0.481129 0.385913 0.356274 0.502963 0.441405 0.375084 0.347644 0.481129 0.424833 0.356274 0.318308 0.441405 0.375329 0.347644 0.31223 0.424833 0.365172 0.318308 0.281603 0.375329 0.318114 0.31223 0.277329 0.365172 0.31216 0.281603 0.248721 0.318114 0.273129 0.277329 0.245802 0.31216 0.269083 0.248721 0.220755 0.273129 0.237255 0.245802 0.218686 0.269083 0.23469 0.220755 0.197404 0.237255 0.208915 0.218686 0.195926 0.23469 0.207168 0.375333 0.441729 0.444076 0.568991 0.365026 0.425409 0.424282 0.533594 0.441729 0.503475 0.568991 0.717923 0.425409 0.479978 0.533594 0.654678 0.441405 0.375329 0.568032 0.441385 0.424833 0.365172 0.532497 0.425128 0.375329 0.318114 0.441385 0.355571 0.365172 0.31216 0.425128 0.346772 0.318114 0.273129 0.355571 0.295961 0.31216 0.269083 0.346772 0.290461 0.273129 0.237255 0.295961 0.251534 0.269083 0.23469 0.290461 0.248479 0.237255 0.208915 0.251534 0.218531 0.23469 0.207168 0.248479 0.21645 0.568032 0.441385 0.717896 0.502701 0.532497 0.425128 0.65415 0.480075 0.441385 0.355571 0.502701 0.383566 0.425128 0.346772 0.480075 0.373353 0.355571 0.295961 0.383566 0.312048 0.346772 0.290461 0.373353 0.305973 0.295961 0.251534 0.312048 0.262408 0.290461 0.248479 0.305973 0.257873 0.251534 0.218531 0.262408 0.224856 0.248479 0.21645 0.257873 0.222845 0.312048 0.262408 0.320178 0.265413 0.305973 0.257873 0.312046 0.262408 0.262408 0.224856 0.265413 0.227432 0.257873 0.222845 0.262408 0.224852 0.320178 0.265413 0.312047 0.262407 0.312046 0.262408 0.305972 0.257873 0.265413 0.227432 0.262407 0.224855 0.262408 0.224852 0.257873 0.222844 0.717717 0.502685 0.568051 0.441375 0.654029 0.480061 0.532495 0.425119 0.502685 0.383563 0.441375 0.355567 0.480061 0.37335 0.425119 0.346769 0.383563 0.312047 0.355567 0.295959 0.37335 0.305972 0.346769 0.290459 0.312047 0.262407 0.295959 0.251533 0.305972 0.257873 0.290459 0.248478 0.262407 0.224855 0.251533 0.21853 0.257873 0.222844 0.248478 0.216449 0.444081 0.567023 0.375535 0.441858 0.425407 0.530667 0.365211 0.425773 0.568051 0.441375 0.441407 0.375326 0.532495 0.425119 0.424834 0.365171 0.441375 0.355567 0.375326 0.318111 0.425119 0.346769 0.365171 0.312158 0.355567 0.295959 0.318111 0.273127 0.346769 0.290459 0.312158 0.269082 0.295959 0.251533 0.273127 0.237255 0.290459 0.248478 0.269082 0.234689 0.251533 0.21853 0.237255 0.208914 0.248478 0.216449 0.234689 0.207167 0.375535 0.441858 0.318014 0.355704 0.365211 0.425773 0.312088 0.346896 0.441858 0.503218 0.355704 0.385921 0.425773 0.481215 0.346896 0.375038 0.503218 0.530076 0.385921 0.397768 0.481215 0.503209 0.375038 0.385928 0.530076 0.502978 0.397768 0.385926 0.503209 0.481147 0.385928 0.375095 0.502978 0.441407 0.385926 0.356279 0.481147 0.424834 0.375095 0.347648 0.441407 0.375326 0.356279 0.318309 0.424834 0.365171 0.347648 0.312231 0.375326 0.318111 0.318309 0.281602 0.365171 0.312158 0.312231 0.277328 0.318111 0.273127 0.281602 0.248721 0.312158 0.269082 0.277328 0.245801 0.273127 0.237255 0.248721 0.220755 0.269082 0.234689 0.245801 0.218686 0.237255 0.208914 0.220755 0.197404 0.234689 0.207167 0.218686 0.195926 0.318014 0.355704 0.270838 0.295337 0.312088 0.346896 0.267329 0.289326 0.355704 0.385921 0.295337 0.312468 0.346896 0.375038 0.289326 0.306374 0.385921 0.397768 0.312468 0.318778 0.375038 0.385928 0.306374 0.312502 0.397768 0.385926 0.318778 0.312492 0.385928 0.375095 0.312502 0.306501 0.385926 0.356279 0.312492 0.294963 0.375095 0.347648 0.306501 0.289975 0.356279 0.318309 0.294963 0.273093 0.347648 0.312231 0.289975 0.269205 0.318309 0.281602 0.273093 0.248817 0.312231 0.277328 0.269205 0.245885 0.281602 0.248721 0.248817 0.225338 0.277328 0.245801 0.245885 0.223141 0.248721 0.220755 0.225338 0.203885 0.245801 0.218686 0.223141 0.202259 0.220755 0.197404 0.203885 0.184582 0.218686 0.195926 0.202259 0.183377 0.26736 0.289406 0.312121 0.346929 0.256994 0.276811 0.295481 0.324659 0.289406 0.30641 0.346929 0.375016 0.276811 0.28946 0.324659 0.347103 0.30641 0.31251 0.375016 0.385911 0.28946 0.295579 0.347103 0.355786 0.31251 0.306497 0.385911 0.375084 0.295579 0.289477 0.355786 0.347066 0.306497 0.289971 0.375084 0.347644 0.289477 0.27708 0.347066 0.324457 0.289971 0.269204 0.347644 0.31223 0.27708 0.258417 0.324457 0.295814 0.269204 0.245885 0.31223 0.277329 0.258417 0.237648 0.295814 0.265639 0.245885 0.223141 0.277329 0.245802 0.237648 0.216921 0.265639 0.237551 0.223141 0.202259 0.245802 0.218686 0.216921 0.197591 0.237551 0.212818 0.202259 0.183377 0.218686 0.195926 0.197591 0.179897 0.212818 0.191679 0.312121 0.346929 0.365026 0.425409 0.295481 0.324659 0.339402 0.384729 0.346929 0.375016 0.425409 0.479978 0.324659 0.347103 0.384729 0.425252 0.375016 0.385911 0.479978 0.503065 0.347103 0.355786 0.425252 0.441586 0.385911 0.375084 0.503065 0.481129 0.355786 0.347066 0.441586 0.425496 0.375084 0.347644 0.481129 0.424833 0.347066 0.324457 0.425496 0.385793 0.347644 0.31223 0.424833 0.365172 0.324457 0.295814 0.385793 0.339293 0.31223 0.277329 0.365172 0.31216 0.295814 0.265639 0.339293 0.295737 0.277329 0.245802 0.31216 0.269083 0.265639 0.237551 0.295737 0.258373 0.245802 0.218686 0.269083 0.23469 0.237551 0.212818 0.258373 0.227459 0.218686 0.195926 0.23469 0.207168 0.212818 0.191679 0.227459 0.202164 0.365026 0.425409 0.424282 0.533594 0.339402 0.384729 0.38784 0.460727 0.425409 0.479978 0.533594 0.654678 0.384729 0.425252 0.460727 0.531459 0.424833 0.365172 0.532497 0.425128 0.385793 0.339293 0.460273 0.384408 0.365172 0.31216 0.425128 0.346772 0.339293 0.295737 0.384408 0.324869 0.31216 0.269083 0.346772 0.290461 0.295737 0.258373 0.324869 0.277032 0.269083 0.23469 0.290461 0.248479 0.258373 0.227459 0.277032 0.2399 0.23469 0.207168 0.248479 0.21645 0.227459 0.202164 0.2399 0.210744 0.532497 0.425128 0.65415 0.480075 0.460273 0.384408 0.531051 0.425096 0.425128 0.346772 0.480075 0.373353 0.384408 0.324869 0.425096 0.346791 0.346772 0.290461 0.373353 0.305973 0.324869 0.277032 0.346791 0.290464 0.290461 0.248479 0.305973 0.257873 0.277032 0.2399 0.290464 0.248482 0.248479 0.21645 0.257873 0.222845 0.2399 0.210744 0.248482 0.216447 0.480075 0.373353 0.502584 0.383642 0.425096 0.346791 0.441456 0.35561 0.373353 0.305973 0.383642 0.312046 0.346791 0.290464 0.35561 0.295971 0.305973 0.257873 0.312046 0.262408 0.290464 0.248482 0.295971 0.251537 0.257873 0.222845 0.262408 0.224852 0.248482 0.216447 0.251537 0.218526 0.502584 0.383642 0.480061 0.37335 0.441456 0.35561 0.425091 0.346789 0.383642 0.312046 0.37335 0.305972 0.35561 0.295971 0.346789 0.290463 0.312046 0.262408 0.305972 0.257873 0.295971 0.251537 0.290463 0.248481 0.262408 0.224852 0.257873 0.222844 0.251537 0.218526 0.248481 0.216447 0.654029 0.480061 0.532495 0.425119 0.531062 0.425091 0.460271 0.384404 0.480061 0.37335 0.425119 0.346769 0.425091 0.346789 0.384404 0.324867 0.37335 0.305972 0.346769 0.290459 0.346789 0.290463 0.324867 0.277031 0.305972 0.257873 0.290459 0.248478 0.290463 0.248481 0.277031 0.239899 0.257873 0.222844 0.248478 0.216449 0.248481 0.216447 0.239899 0.210743 0.425407 0.530667 0.365211 0.425773 0.387778 0.460732 0.339139 0.386113 0.532495 0.425119 0.424834 0.365171 0.460271 0.384404 0.385797 0.339292 0.425119 0.346769 0.365171 0.312158 0.384404 0.324867 0.339292 0.295736 0.346769 0.290459 0.312158 0.269082 0.324867 0.277031 0.295736 0.258373 0.290459 0.248478 0.269082 0.234689 0.277031 0.239899 0.258373 0.227459 0.248478 0.216449 0.234689 0.207167 0.239899 0.210743 0.227459 0.202163 0.365211 0.425773 0.312088 0.346896 0.339139 0.386113 0.295578 0.324314 0.425773 0.481215 0.346896 0.375038 0.386113 0.425618 0.324314 0.347044 0.481215 0.503209 0.375038 0.385928 0.425618 0.441634 0.347044 0.355775 0.503209 0.481147 0.385928 0.375095 0.441634 0.425514 0.355775 0.34707 0.481147 0.424834 0.375095 0.347648 0.425514 0.385797 0.34707 0.324461 0.424834 0.365171 0.347648 0.312231 0.385797 0.339292 0.324461 0.295815 0.365171 0.312158 0.312231 0.277328 0.339292 0.295736 0.295815 0.26564 0.312158 0.269082 0.277328 0.245801 0.295736 0.258373 0.26564 0.237551 0.269082 0.234689 0.245801 0.218686 0.258373 0.227459 0.237551 0.212817 0.234689 0.207167 0.218686 0.195926 0.227459 0.202163 0.212817 0.191679 0.312088 0.346896 0.267329 0.289326 0.295578 0.324314 0.256897 0.276793 0.346896 0.375038 0.289326 0.306374 0.324314 0.347044 0.276793 0.289376 0.375038 0.385928 0.306374 0.312502 0.347044 0.355775 0.289376 0.295559 0.385928 0.375095 0.312502 0.306501 0.355775 0.34707 0.295559 0.289476 0.375095 0.347648 0.306501 0.289975 0.34707 0.324461 0.289476 0.277083 0.347648 0.312231 0.289975 0.269205 0.324461 0.295815 0.277083 0.258419 0.312231 0.277328 0.269205 0.245885 0.295815 0.26564 0.258419 0.237648 0.277328 0.245801 0.245885 0.223141 0.26564 0.237551 0.237648 0.216921 0.245801 0.218686 0.223141 0.202259 0.237551 0.212817 0.216921 0.197591 0.218686 0.195926 0.202259 0.183377 0.212817 0.191679 0.197591 0.179897 0.256994 0.276811 0.295481 0.324659 0.242002 0.258133 0.273102 0.295534 0.276811 0.28946 0.324659 0.347103 0.258133 0.268976 0.295534 0.312107 0.28946 0.295579 0.347103 0.355786 0.268976 0.27285 0.312107 0.318235 0.295579 0.289477 0.355786 0.347066 0.27285 0.269029 0.318235 0.312129 0.289477 0.27708 0.347066 0.324457 0.269029 0.258315 0.312129 0.295774 0.27708 0.258417 0.324457 0.295814 0.258315 0.243096 0.295774 0.273342 0.258417 0.237648 0.295814 0.265639 0.243096 0.225531 0.273342 0.249019 0.237648 0.216921 0.265639 0.237551 0.225531 0.207586 0.249019 0.225444 0.216921 0.197591 0.237551 0.212818 0.207586 0.190461 0.225444 0.203985 0.197591 0.179897 0.212818 0.191679 0.190461 0.174495 0.203985 0.18516 0.295481 0.324659 0.339402 0.384729 0.273102 0.295534 0.306887 0.33934 0.324659 0.347103 0.384729 0.425252 0.295534 0.312107 0.33934 0.3654 0.347103 0.355786 0.425252 0.441586 0.312107 0.318235 0.3654 0.375586 0.355786 0.347066 0.441586 0.425496 0.318235 0.312129 0.375586 0.36531 0.347066 0.324457 0.425496 0.385793 0.312129 0.295774 0.36531 0.339106 0.324457 0.295814 0.385793 0.339293 0.295774 0.273342 0.339106 0.306736 0.295814 0.265639 0.339293 0.295737 0.273342 0.249019 0.306736 0.273319 0.265639 0.237551 0.295737 0.258373 0.249019 0.225444 0.273319 0.243012 0.237551 0.212818 0.258373 0.227459 0.225444 0.203985 0.243012 0.216774 0.212818 0.191679 0.227459 0.202164 0.203985 0.18516 0.216774 0.194564 0.339402 0.384729 0.38784 0.460727 0.306887 0.33934 0.339124 0.38634 0.384729 0.425252 0.460727 0.531459 0.33934 0.3654 0.38634 0.425297 0.425252 0.441586 0.531459 0.566525 0.3654 0.375586 0.425297 0.441534 0.441586 0.425496 0.566525 0.52978 0.375586 0.36531 0.441534 0.425432 0.425496 0.385793 0.52978 0.460273 0.36531 0.339106 0.425432 0.385679 0.385793 0.339293 0.460273 0.384408 0.339106 0.306736 0.385679 0.339247 0.339293 0.295737 0.384408 0.324869 0.306736 0.273319 0.339247 0.295716 0.295737 0.258373 0.324869 0.277032 0.273319 0.243012 0.295716 0.258368 0.258373 0.227459 0.277032 0.2399 0.243012 0.216774 0.258368 0.227469 0.227459 0.202164 0.2399 0.210744 0.216774 0.194564 0.227469 0.202178 0.38784 0.460727 0.425419 0.530781 0.339124 0.38634 0.365168 0.425807 0.460273 0.384408 0.531051 0.425096 0.385679 0.339247 0.425078 0.365218 0.384408 0.324869 0.425096 0.346791 0.339247 0.295716 0.365218 0.312137 0.324869 0.277032 0.346791 0.290464 0.295716 0.258368 0.312137 0.26908 0.277032 0.2399 0.290464 0.248482 0.258368 0.227469 0.26908 0.234704 0.2399 0.210744 0.248482 0.216447 0.227469 0.202178 0.234704 0.207182 0.425419 0.530781 0.444034 0.567096 0.365168 0.425807 0.375428 0.441869 0.531051 0.425096 0.566332 0.441456 0.425078 0.365218 0.441375 0.37551 0.425096 0.346791 0.441456 0.35561 0.365218 0.312137 0.37551 0.318085 0.346791 0.290464 0.35561 0.295971 0.312137 0.26908 0.318085 0.273129 0.290464 0.248482 0.295971 0.251537 0.26908 0.234704 0.273129 0.237271 0.248482 0.216447 0.251537 0.218526 0.234704 0.207182 0.237271 0.208927 0.444034 0.567096 0.425375 0.530627 0.375428 0.441869 0.365159 0.425787 0.566332 0.441456 0.531062 0.425091 0.441375 0.37551 0.425076 0.365218 0.441456 0.35561 0.425091 0.346789 0.37551 0.318085 0.365218 0.312136 0.35561 0.295971 0.346789 0.290463 0.318085 0.273129 0.312136 0.26908 0.295971 0.251537 0.290463 0.248481 0.273129 0.237271 0.26908 0.234704 0.251537 0.218526 0.248481 0.216447 0.237271 0.208927 0.234704 0.207182 0.425375 0.530627 0.387778 0.460732 0.365159 0.425787 0.339172 0.386353 0.531062 0.425091 0.460271 0.384404 0.425076 0.365218 0.385682 0.339247 0.425091 0.346789 0.384404 0.324867 0.365218 0.312136 0.339247 0.295715 0.346789 0.290463 0.324867 0.277031 0.312136 0.26908 0.295715 0.258368 0.290463 0.248481 0.277031 0.239899 0.26908 0.234704 0.258368 0.227469 0.248481 0.216447 0.239899 0.210743 0.234704 0.207182 0.227469 0.202178 0.387778 0.460732 0.339139 0.386113 0.339172 0.386353 0.30705 0.339203 0.460732 0.529985 0.386113 0.425618 0.386353 0.425595 0.339203 0.365449 0.529985 0.566449 0.425618 0.441634 0.425595 0.441571 0.365449 0.37561 0.566449 0.529794 0.441634 0.425514 0.441571 0.425438 0.37561 0.365318 0.529794 0.460271 0.425514 0.385797 0.425438 0.385682 0.365318 0.339109 0.460271 0.384404 0.385797 0.339292 0.385682 0.339247 0.339109 0.306736 0.384404 0.324867 0.339292 0.295736 0.339247 0.295715 0.306736 0.273319 0.324867 0.277031 0.295736 0.258373 0.295715 0.258368 0.273319 0.243012 0.277031 0.239899 0.258373 0.227459 0.258368 0.227469 0.243012 0.216774 0.239899 0.210743 0.227459 0.202163 0.227469 0.202178 0.216774 0.194564 0.339139 0.386113 0.295578 0.324314 0.30705 0.339203 0.273097 0.295585 0.386113 0.425618 0.324314 0.347044 0.339203 0.365449 0.295585 0.312077 0.425618 0.441634 0.347044 0.355775 0.365449 0.37561 0.312077 0.318235 0.441634 0.425514 0.355775 0.34707 0.37561 0.365318 0.318235 0.312132 0.425514 0.385797 0.34707 0.324461 0.365318 0.339109 0.312132 0.295777 0.385797 0.339292 0.324461 0.295815 0.339109 0.306736 0.295777 0.273343 0.339292 0.295736 0.295815 0.26564 0.306736 0.273319 0.273343 0.24902 0.295736 0.258373 0.26564 0.237551 0.273319 0.243012 0.24902 0.225444 0.258373 0.227459 0.237551 0.212817 0.243012 0.216774 0.225444 0.203985 0.227459 0.202163 0.212817 0.191679 0.216774 0.194564 0.203985 0.18516 0.295578 0.324314 0.256897 0.276793 0.273097 0.295585 0.241986 0.25808 0.324314 0.347044 0.276793 0.289376 0.295585 0.312077 0.25808 0.268953 0.347044 0.355775 0.289376 0.295559 0.312077 0.318235 0.268953 0.272839 0.355775 0.34707 0.295559 0.289476 0.318235 0.312132 0.272839 0.26903 0.34707 0.324461 0.289476 0.277083 0.312132 0.295777 0.26903 0.258317 0.324461 0.295815 0.277083 0.258419 0.295777 0.273343 0.258317 0.243097 0.295815 0.26564 0.258419 0.237648 0.273343 0.24902 0.243097 0.225532 0.26564 0.237551 0.237648 0.216921 0.24902 0.225444 0.225532 0.207586 0.237551 0.212817 0.216921 0.197591 0.225444 0.203985 0.207586 0.190461 0.212817 0.191679 0.197591 0.179897 0.203985 0.18516 0.190461 0.174495 0.242002 0.258133 0.273102 0.295534 0.224668 0.23736 0.248769 0.265374 0.258133 0.268976 0.295534 0.312107 0.23736 0.245684 0.265374 0.277186 0.268976 0.27285 0.312107 0.318235 0.245684 0.248668 0.277186 0.281483 0.27285 0.269029 0.318235 0.312129 0.248668 0.245762 0.281483 0.277246 0.269029 0.258315 0.312129 0.295774 0.245762 0.237575 0.277246 0.265561 0.258315 0.243096 0.295774 0.273342 0.237575 0.225497 0.265561 0.248986 0.243096 0.225531 0.273342 0.249019 0.225497 0.211252 0.248986 0.230167 0.225531 0.207586 0.249019 0.225444 0.211252 0.196286 0.230167 0.211179 0.207586 0.190461 0.225444 0.203985 0.196286 0.181629 0.211179 0.193246 0.190461 0.174495 0.203985 0.18516 0.181629 0.167658 0.193246 0.177028 0.273102 0.295534 0.306887 0.33934 0.248769 0.265374 0.273095 0.295562 0.295534 0.312107 0.33934 0.3654 0.265374 0.277186 0.295562 0.311845 0.312107 0.318235 0.3654 0.375586 0.277186 0.281483 0.311845 0.317997 0.318235 0.312129 0.375586 0.36531 0.281483 0.277246 0.317997 0.31201 0.312129 0.295774 0.36531 0.339106 0.277246 0.265561 0.31201 0.295708 0.295774 0.273342 0.339106 0.306736 0.265561 0.248986 0.295708 0.273285 0.273342 0.249019 0.306736 0.273319 0.248986 0.230167 0.273285 0.248968 0.249019 0.225444 0.273319 0.243012 0.230167 0.211179 0.248968 0.225418 0.225444 0.203985 0.243012 0.216774 0.211179 0.193246 0.225418 0.204023 0.203985 0.18516 0.216774 0.194564 0.193246 0.177028 0.204023 0.185203 0.306887 0.33934 0.339124 0.38634 0.273095 0.295562 0.295354 0.323345 0.33934 0.3654 0.38634 0.425297 0.295562 0.311845 0.323345 0.346891 0.3654 0.375586 0.425297 0.441534 0.311845 0.317997 0.346891 0.355555 0.375586 0.36531 0.441534 0.425432 0.317997 0.31201 0.355555 0.346678 0.36531 0.339106 0.425432 0.385679 0.31201 0.295708 0.346678 0.324427 0.339106 0.306736 0.385679 0.339247 0.295708 0.273285 0.324427 0.295688 0.306736 0.273319 0.339247 0.295716 0.273285 0.248968 0.295688 0.265562 0.273319 0.243012 0.295716 0.258368 0.248968 0.225418 0.265562 0.23752 0.243012 0.216774 0.258368 0.227469 0.225418 0.204023 0.23752 0.212874 0.216774 0.194564 0.227469 0.202178 0.204023 0.185203 0.212874 0.191742 0.339124 0.38634 0.365168 0.425807 0.295354 0.323345 0.311764 0.346948 0.38634 0.425297 0.425807 0.48133 0.323345 0.346891 0.346948 0.374866 0.425297 0.441534 0.48133 0.50318 0.346891 0.355555 0.374866 0.385658 0.441534 0.425432 0.50318 0.481058 0.355555 0.346678 0.385658 0.374764 0.425432 0.385679 0.481058 0.425078 0.346678 0.324427 0.374764 0.346657 0.385679 0.339247 0.425078 0.365218 0.324427 0.295688 0.346657 0.312004 0.339247 0.295716 0.365218 0.312137 0.295688 0.265562 0.312004 0.277246 0.295716 0.258368 0.312137 0.26908 0.265562 0.23752 0.277246 0.24577 0.258368 0.227469 0.26908 0.234704 0.23752 0.212874 0.24577 0.218753 0.227469 0.202178 0.234704 0.207182 0.212874 0.191742 0.218753 0.195997 0.365168 0.425807 0.375428 0.441869 0.311764 0.346948 0.317923 0.355626 0.425807 0.48133 0.441869 0.503308 0.346948 0.374866 0.355626 0.385697 0.48133 0.50318 0.503308 0.530091 0.374866 0.385658 0.385697 0.397501 0.50318 0.481058 0.530091 0.503087 0.385658 0.374764 0.397501 0.385635 0.481058 0.425078 0.503087 0.441375 0.374764 0.346657 0.385635 0.355531 0.425078 0.365218 0.441375 0.37551 0.346657 0.312004 0.355531 0.317997 0.365218 0.312137 0.37551 0.318085 0.312004 0.277246 0.317997 0.281528 0.312137 0.26908 0.318085 0.273129 0.277246 0.24577 0.281528 0.24869 0.26908 0.234704 0.273129 0.237271 0.24577 0.218753 0.24869 0.220826 0.234704 0.207182 0.237271 0.208927 0.218753 0.195997 0.220826 0.197476 0.375428 0.441869 0.365159 0.425787 0.317923 0.355626 0.311765 0.346951 0.441869 0.503308 0.425787 0.481216 0.355626 0.385697 0.346951 0.374863 0.503308 0.530091 0.481216 0.503165 0.385697 0.397501 0.374863 0.385659 0.530091 0.503087 0.503165 0.481059 0.397501 0.385635 0.385659 0.374766 0.503087 0.441375 0.481059 0.425076 0.385635 0.355531 0.374766 0.346658 0.441375 0.37551 0.425076 0.365218 0.355531 0.317997 0.346658 0.312004 0.37551 0.318085 0.365218 0.312136 0.317997 0.281528 0.312004 0.277246 0.318085 0.273129 0.312136 0.2690