<?xml version="1.0" ?> 
<!-- 
# vtk DataFile Version 3.0
#This file was generated by the deal.II library on 16:50:22 at 2019/11/27
-->
<VTKFile type="UnstructuredGrid" version="0.1" byte_order="LittleEndian">
<UnstructuredGrid>
<Piece NumberOfPoints="44288" NumberOfCells="5536" >
  <Points>
    <DataArray type="Float32" NumberOfComponents="3" format="ascii">
-50 -50 0
-40 -50 0
-50 -40 0
-40 -40 0
-50 -50 10
-40 -50 10
-50 -40 10
-40 -40 10
-40 -50 0
-30 -50 0
-40 -40 0
-30 -40 0
-40 -50 10
-30 -50 10
-40 -40 10
-30 -40 10
-30 -50 0
-20 -50 0
-30 -40 0
-20 -40 0
-30 -50 10
-20 -50 10
-30 -40 10
-20 -40 10
-20 -50 0
-10 -50 0
-20 -40 0
-10 -40 0
-20 -50 10
-10 -50 10
-20 -40 10
-10 -40 10
-10 -50 0
0 -50 0
-10 -40 0
0 -40 0
-10 -50 10
0 -50 10
-10 -40 10
0 -40 10
0 -50 0
10 -50 0
0 -40 0
10 -40 0
0 -50 10
10 -50 10
0 -40 10
10 -40 10
10 -50 0
20 -50 0
10 -40 0
20 -40 0
10 -50 10
20 -50 10
10 -40 10
20 -40 10
20 -50 0
30 -50 0
20 -40 0
30 -40 0
20 -50 10
30 -50 10
20 -40 10
30 -40 10
30 -50 0
40 -50 0
30 -40 0
40 -40 0
30 -50 10
40 -50 10
30 -40 10
40 -40 10
40 -50 0
50 -50 0
40 -40 0
50 -40 0
40 -50 10
50 -50 10
40 -40 10
50 -40 10
-50 -40 0
-40 -40 0
-50 -30 0
-40 -30 0
-50 -40 10
-40 -40 10
-50 -30 10
-40 -30 10
-40 -40 0
-30 -40 0
-40 -30 0
-30 -30 0
-40 -40 10
-30 -40 10
-40 -30 10
-30 -30 10
-30 -40 0
-20 -40 0
-30 -30 0
-20 -30 0
-30 -40 10
-20 -40 10
-30 -30 10
-20 -30 10
-20 -40 0
-10 -40 0
-20 -30 0
-10 -30 0
-20 -40 10
-10 -40 10
-20 -30 10
-10 -30 10
-10 -40 0
0 -40 0
-10 -30 0
0 -30 0
-10 -40 10
0 -40 10
-10 -30 10
0 -30 10
0 -40 0
10 -40 0
0 -30 0
10 -30 0
0 -40 10
10 -40 10
0 -30 10
10 -30 10
10 -40 0
20 -40 0
10 -30 0
20 -30 0
10 -40 10
20 -40 10
10 -30 10
20 -30 10
20 -40 0
30 -40 0
20 -30 0
30 -30 0
20 -40 10
30 -40 10
20 -30 10
30 -30 10
30 -40 0
40 -40 0
30 -30 0
40 -30 0
30 -40 10
40 -40 10
30 -30 10
40 -30 10
40 -40 0
50 -40 0
40 -30 0
50 -30 0
40 -40 10
50 -40 10
40 -30 10
50 -30 10
-50 -30 0
-40 -30 0
-50 -20 0
-40 -20 0
-50 -30 10
-40 -30 10
-50 -20 10
-40 -20 10
-40 -30 0
-30 -30 0
-40 -20 0
-30 -20 0
-40 -30 10
-30 -30 10
-40 -20 10
-30 -20 10
-30 -30 0
-20 -30 0
-30 -20 0
-20 -20 0
-30 -30 10
-20 -30 10
-30 -20 10
-20 -20 10
-20 -30 0
-10 -30 0
-20 -20 0
-10 -20 0
-20 -30 10
-10 -30 10
-20 -20 10
-10 -20 10
-10 -30 0
0 -30 0
-10 -20 0
0 -20 0
-10 -30 10
0 -30 10
-10 -20 10
0 -20 10
0 -30 0
10 -30 0
0 -20 0
10 -20 0
0 -30 10
10 -30 10
0 -20 10
10 -20 10
-50 -20 0
-40 -20 0
-50 -10 0
-40 -10 0
-50 -20 10
-40 -20 10
-50 -10 10
-40 -10 10
-40 -20 0
-30 -20 0
-40 -10 0
-30 -10 0
-40 -20 10
-30 -20 10
-40 -10 10
-30 -10 10
-30 -20 0
-20 -20 0
-30 -10 0
-20 -10 0
-30 -20 10
-20 -20 10
-30 -10 10
-20 -10 10
-20 -20 0
-10 -20 0
-20 -10 0
-10 -10 0
-20 -20 10
-10 -20 10
-20 -10 10
-10 -10 10
-10 -20 0
0 -20 0
-10 -10 0
0 -10 0
-10 -20 10
0 -20 10
-10 -10 10
0 -10 10
-50 -10 0
-40 -10 0
-50 0 0
-40 0 0
-50 -10 10
-40 -10 10
-50 0 10
-40 0 10
-40 -10 0
-30 -10 0
-40 0 0
-30 0 0
-40 -10 10
-30 -10 10
-40 0 10
-30 0 10
-30 -10 0
-20 -10 0
-30 0 0
-20 0 0
-30 -10 10
-20 -10 10
-30 0 10
-20 0 10
-20 -10 0
-10 -10 0
-20 0 0
-10 0 0
-20 -10 10
-10 -10 10
-20 0 10
-10 0 10
-50 0 0
-40 0 0
-50 10 0
-40 10 0
-50 0 10
-40 0 10
-50 10 10
-40 10 10
-40 0 0
-30 0 0
-40 10 0
-30 10 0
-40 0 10
-30 0 10
-40 10 10
-30 10 10
-30 0 0
-20 0 0
-30 10 0
-20 10 0
-30 0 10
-20 0 10
-30 10 10
-20 10 10
-20 0 0
-10 0 0
-20 10 0
-10 10 0
-20 0 10
-10 0 10
-20 10 10
-10 10 10
-50 10 0
-40 10 0
-50 20 0
-40 20 0
-50 10 10
-40 10 10
-50 20 10
-40 20 10
-40 10 0
-30 10 0
-40 20 0
-30 20 0
-40 10 10
-30 10 10
-40 20 10
-30 20 10
-30 10 0
-20 10 0
-30 20 0
-20 20 0
-30 10 10
-20 10 10
-30 20 10
-20 20 10
-20 10 0
-10 10 0
-20 20 0
-10 20 0
-20 10 10
-10 10 10
-20 20 10
-10 20 10
-10 10 0
0 10 0
-10 20 0
0 20 0
-10 10 10
0 10 10
-10 20 10
0 20 10
-50 20 0
-40 20 0
-50 30 0
-40 30 0
-50 20 10
-40 20 10
-50 30 10
-40 30 10
-40 20 0
-30 20 0
-40 30 0
-30 30 0
-40 20 10
-30 20 10
-40 30 10
-30 30 10
-30 20 0
-20 20 0
-30 30 0
-20 30 0
-30 20 10
-20 20 10
-30 30 10
-20 30 10
-20 20 0
-10 20 0
-20 30 0
-10 30 0
-20 20 10
-10 20 10
-20 30 10
-10 30 10
-10 20 0
0 20 0
-10 30 0
0 30 0
-10 20 10
0 20 10
-10 30 10
0 30 10
0 20 0
10 20 0
0 30 0
10 30 0
0 20 10
10 20 10
0 30 10
10 30 10
-50 30 0
-40 30 0
-50 40 0
-40 40 0
-50 30 10
-40 30 10
-50 40 10
-40 40 10
-40 30 0
-30 30 0
-40 40 0
-30 40 0
-40 30 10
-30 30 10
-40 40 10
-30 40 10
-30 30 0
-20 30 0
-30 40 0
-20 40 0
-30 30 10
-20 30 10
-30 40 10
-20 40 10
-20 30 0
-10 30 0
-20 40 0
-10 40 0
-20 30 10
-10 30 10
-20 40 10
-10 40 10
-10 30 0
0 30 0
-10 40 0
0 40 0
-10 30 10
0 30 10
-10 40 10
0 40 10
0 30 0
10 30 0
0 40 0
10 40 0
0 30 10
10 30 10
0 40 10
10 40 10
10 30 0
20 30 0
10 40 0
20 40 0
10 30 10
20 30 10
10 40 10
20 40 10
20 30 0
30 30 0
20 40 0
30 40 0
20 30 10
30 30 10
20 40 10
30 40 10
30 30 0
40 30 0
30 40 0
40 40 0
30 30 10
40 30 10
30 40 10
40 40 10
40 30 0
50 30 0
40 40 0
50 40 0
40 30 10
50 30 10
40 40 10
50 40 10
-50 40 0
-40 40 0
-50 50 0
-40 50 0
-50 40 10
-40 40 10
-50 50 10
-40 50 10
-40 40 0
-30 40 0
-40 50 0
-30 50 0
-40 40 10
-30 40 10
-40 50 10
-30 50 10
-30 40 0
-20 40 0
-30 50 0
-20 50 0
-30 40 10
-20 40 10
-30 50 10
-20 50 10
-20 40 0
-10 40 0
-20 50 0
-10 50 0
-20 40 10
-10 40 10
-20 50 10
-10 50 10
-10 40 0
0 40 0
-10 50 0
0 50 0
-10 40 10
0 40 10
-10 50 10
0 50 10
0 40 0
10 40 0
0 50 0
10 50 0
0 40 10
10 40 10
0 50 10
10 50 10
10 40 0
20 40 0
10 50 0
20 50 0
10 40 10
20 40 10
10 50 10
20 50 10
20 40 0
30 40 0
20 50 0
30 50 0
20 40 10
30 40 10
20 50 10
30 50 10
30 40 0
40 40 0
30 50 0
40 50 0
30 40 10
40 40 10
30 50 10
40 50 10
40 40 0
50 40 0
40 50 0
50 50 0
40 40 10
50 40 10
40 50 10
50 50 10
-50 -50 10
-40 -50 10
-50 -40 10
-40 -40 10
-50 -50 20
-40 -50 20
-50 -40 20
-40 -40 20
-40 -50 10
-30 -50 10
-40 -40 10
-30 -40 10
-40 -50 20
-30 -50 20
-40 -40 20
-30 -40 20
-30 -50 10
-20 -50 10
-30 -40 10
-20 -40 10
-30 -50 20
-20 -50 20
-30 -40 20
-20 -40 20
-20 -50 10
-10 -50 10
-20 -40 10
-10 -40 10
-20 -50 20
-10 -50 20
-20 -40 20
-10 -40 20
-10 -50 10
0 -50 10
-10 -40 10
0 -40 10
-10 -50 20
0 -50 20
-10 -40 20
0 -40 20
0 -50 10
10 -50 10
0 -40 10
10 -40 10
0 -50 20
10 -50 20
0 -40 20
10 -40 20
10 -50 10
20 -50 10
10 -40 10
20 -40 10
10 -50 20
20 -50 20
10 -40 20
20 -40 20
20 -50 10
30 -50 10
20 -40 10
30 -40 10
20 -50 20
30 -50 20
20 -40 20
30 -40 20
30 -50 10
40 -50 10
30 -40 10
40 -40 10
30 -50 20
40 -50 20
30 -40 20
40 -40 20
40 -50 10
50 -50 10
40 -40 10
50 -40 10
40 -50 20
50 -50 20
40 -40 20
50 -40 20
-50 -40 10
-40 -40 10
-50 -30 10
-40 -30 10
-50 -40 20
-40 -40 20
-50 -30 20
-40 -30 20
-40 -40 10
-30 -40 10
-40 -30 10
-30 -30 10
-40 -40 20
-30 -40 20
-40 -30 20
-30 -30 20
-30 -40 10
-20 -40 10
-30 -30 10
-20 -30 10
-30 -40 20
-20 -40 20
-30 -30 20
-20 -30 20
-20 -40 10
-10 -40 10
-20 -30 10
-10 -30 10
-20 -40 20
-10 -40 20
-20 -30 20
-10 -30 20
-10 -40 10
0 -40 10
-10 -30 10
0 -30 10
-10 -40 20
0 -40 20
-10 -30 20
0 -30 20
0 -40 10
10 -40 10
0 -30 10
10 -30 10
0 -40 20
10 -40 20
0 -30 20
10 -30 20
10 -40 10
20 -40 10
10 -30 10
20 -30 10
10 -40 20
20 -40 20
10 -30 20
20 -30 20
20 -40 10
30 -40 10
20 -30 10
30 -30 10
20 -40 20
30 -40 20
20 -30 20
30 -30 20
30 -40 10
40 -40 10
30 -30 10
40 -30 10
30 -40 20
40 -40 20
30 -30 20
40 -30 20
40 -40 10
50 -40 10
40 -30 10
50 -30 10
40 -40 20
50 -40 20
40 -30 20
50 -30 20
-50 -30 10
-40 -30 10
-50 -20 10
-40 -20 10
-50 -30 20
-40 -30 20
-50 -20 20
-40 -20 20
-40 -30 10
-30 -30 10
-40 -20 10
-30 -20 10
-40 -30 20
-30 -30 20
-40 -20 20
-30 -20 20
-30 -30 10
-20 -30 10
-30 -20 10
-20 -20 10
-30 -30 20
-20 -30 20
-30 -20 20
-20 -20 20
-20 -30 10
-10 -30 10
-20 -20 10
-10 -20 10
-20 -30 20
-10 -30 20
-20 -20 20
-10 -20 20
-10 -30 10
0 -30 10
-10 -20 10
0 -20 10
-10 -30 20
0 -30 20
-10 -20 20
0 -20 20
-50 -20 10
-40 -20 10
-50 -10 10
-40 -10 10
-50 -20 20
-40 -20 20
-50 -10 20
-40 -10 20
-40 -20 10
-30 -20 10
-40 -10 10
-30 -10 10
-40 -20 20
-30 -20 20
-40 -10 20
-30 -10 20
-30 -20 10
-20 -20 10
-30 -10 10
-20 -10 10
-30 -20 20
-20 -20 20
-30 -10 20
-20 -10 20
-20 -20 10
-10 -20 10
-20 -10 10
-10 -10 10
-20 -20 20
-10 -20 20
-20 -10 20
-10 -10 20
-10 -20 10
0 -20 10
-10 -10 10
0 -10 10
-10 -20 20
0 -20 20
-10 -10 20
0 -10 20
-50 -10 10
-40 -10 10
-50 0 10
-40 0 10
-50 -10 20
-40 -10 20
-50 0 20
-40 0 20
-40 -10 10
-30 -10 10
-40 0 10
-30 0 10
-40 -10 20
-30 -10 20
-40 0 20
-30 0 20
-30 -10 10
-20 -10 10
-30 0 10
-20 0 10
-30 -10 20
-20 -10 20
-30 0 20
-20 0 20
-20 -10 10
-10 -10 10
-20 0 10
-10 0 10
-20 -10 20
-10 -10 20
-20 0 20
-10 0 20
-10 -10 10
0 -10 10
-10 0 10
0 0 10
-10 -10 20
0 -10 20
-10 0 20
0 0 20
-50 0 10
-40 0 10
-50 10 10
-40 10 10
-50 0 20
-40 0 20
-50 10 20
-40 10 20
-40 0 10
-30 0 10
-40 10 10
-30 10 10
-40 0 20
-30 0 20
-40 10 20
-30 10 20
-30 0 10
-20 0 10
-30 10 10
-20 10 10
-30 0 20
-20 0 20
-30 10 20
-20 10 20
-20 0 10
-10 0 10
-20 10 10
-10 10 10
-20 0 20
-10 0 20
-20 10 20
-10 10 20
-10 0 10
0 0 10
-10 10 10
0 10 10
-10 0 20
0 0 20
-10 10 20
0 10 20
-50 10 10
-40 10 10
-50 20 10
-40 20 10
-50 10 20
-40 10 20
-50 20 20
-40 20 20
-40 10 10
-30 10 10
-40 20 10
-30 20 10
-40 10 20
-30 10 20
-40 20 20
-30 20 20
-30 10 10
-20 10 10
-30 20 10
-20 20 10
-30 10 20
-20 10 20
-30 20 20
-20 20 20
-20 10 10
-10 10 10
-20 20 10
-10 20 10
-20 10 20
-10 10 20
-20 20 20
-10 20 20
-10 10 10
0 10 10
-10 20 10
0 20 10
-10 10 20
0 10 20
-10 20 20
0 20 20
-50 20 10
-40 20 10
-50 30 10
-40 30 10
-50 20 20
-40 20 20
-50 30 20
-40 30 20
-40 20 10
-30 20 10
-40 30 10
-30 30 10
-40 20 20
-30 20 20
-40 30 20
-30 30 20
-30 20 10
-20 20 10
-30 30 10
-20 30 10
-30 20 20
-20 20 20
-30 30 20
-20 30 20
-20 20 10
-10 20 10
-20 30 10
-10 30 10
-20 20 20
-10 20 20
-20 30 20
-10 30 20
-10 20 10
0 20 10
-10 30 10
0 30 10
-10 20 20
0 20 20
-10 30 20
0 30 20
-50 30 10
-40 30 10
-50 40 10
-40 40 10
-50 30 20
-40 30 20
-50 40 20
-40 40 20
-40 30 10
-30 30 10
-40 40 10
-30 40 10
-40 30 20
-30 30 20
-40 40 20
-30 40 20
-30 30 10
-20 30 10
-30 40 10
-20 40 10
-30 30 20
-20 30 20
-30 40 20
-20 40 20
-20 30 10
-10 30 10
-20 40 10
-10 40 10
[...]
  <PointData Scalars="scalars">
    <DataArray type="Float32" Name="u" format="ascii">
0.161062 0.176588 0.169357 0.187214 0.160258 0.175525 0.168421 0.185949 0.176588 0.194227 0.187214 0.208625 0.175525 0.192818 0.185949 0.206873 0.194227 0.214397 0.208625 0.234193 0.192818 0.212499 0.206873 0.23175 0.214397 0.236933 0.234193 0.26465 0.212499 0.234403 0.23175 0.261072 0.236933 0.261097 0.26465 0.299606 0.234403 0.257672 0.261072 0.294631 0.261097 0.284464 0.299606 0.337772 0.257672 0.280008 0.294631 0.33051 0.284464 0.30526 0.337772 0.372801 0.280008 0.299637 0.33051 0.362709 0.30526 0.31718 0.372801 0.39484 0.299637 0.310946 0.362709 0.382982 0.31718 0.316897 0.39484 0.394767 0.310946 0.310707 0.382982 0.38315 0.316897 0.303002 0.394767 0.37208 0.310707 0.297633 0.38315 0.362343 0.169357 0.187214 0.176486 0.196971 0.168421 0.185949 0.175422 0.1955 0.187214 0.208625 0.196971 0.222319 0.185949 0.206873 0.1955 0.220197 0.208625 0.234193 0.222319 0.254184 0.206873 0.23175 0.220197 0.25091 0.234193 0.26465 0.254184 0.294085 0.23175 0.261072 0.25091 0.289394 0.26465 0.299606 0.294085 0.345927 0.261072 0.294631 0.289394 0.337352 0.299606 0.337772 0.345927 0.408871 0.294631 0.33051 0.337352 0.395978 0.337772 0.372801 0.408871 0.477762 0.33051 0.362709 0.395978 0.455853 0.372801 0.39484 0.477762 0.523489 0.362709 0.382982 0.455853 0.495983 0.39484 0.394767 0.523489 0.523901 0.382982 0.38315 0.495983 0.498911 0.394767 0.37208 0.523901 0.47639 0.38315 0.362343 0.498911 0.458296 0.176486 0.196971 0.182136 0.204981 0.175422 0.1955 0.180975 0.203283 0.196971 0.222319 0.204981 0.233945 0.1955 0.220197 0.203283 0.231497 0.222319 0.254184 0.233945 0.272333 0.220197 0.25091 0.231497 0.267832 0.254184 0.294085 0.272333 0.323165 0.25091 0.289394 0.267832 0.31643 0.294085 0.345927 0.323165 0.395144 0.289394 0.337352 0.31643 0.383206 0.345927 0.408871 0.395144 0.500742 0.337352 0.395978 0.383206 0.474061 0.182136 0.204981 0.185822 0.210246 0.180975 0.203283 0.184554 0.208505 0.204981 0.233945 0.210246 0.242736 0.203283 0.231497 0.208505 0.239201 0.233945 0.272333 0.242736 0.28445 0.231497 0.267832 0.239201 0.279874 0.272333 0.323165 0.28445 0.345256 0.267832 0.31643 0.279874 0.336627 0.323165 0.395144 0.345256 0.437021 0.31643 0.383206 0.336627 0.422702 0.185822 0.210246 0.187067 0.212236 0.184554 0.208505 0.185823 0.210251 0.210246 0.242736 0.212236 0.245168 0.208505 0.239201 0.210251 0.242749 0.242736 0.28445 0.245168 0.289087 0.239201 0.279874 0.242749 0.28443 0.28445 0.345256 0.289087 0.35713 0.279874 0.336627 0.28443 0.345496 0.187067 0.212236 0.185821 0.210245 0.185823 0.210251 0.184553 0.208504 0.212236 0.245168 0.210245 0.242734 0.210251 0.242749 0.208504 0.239199 0.245168 0.289087 0.242734 0.284448 0.242749 0.28443 0.239199 0.279871 0.289087 0.35713 0.284448 0.34525 0.28443 0.345496 0.279871 0.336624 0.185821 0.210245 0.182134 0.204978 0.184553 0.208504 0.180973 0.203281 0.210245 0.242734 0.204978 0.233942 0.208504 0.239199 0.203281 0.231494 0.242734 0.284448 0.233942 0.272329 0.239199 0.279871 0.231494 0.267828 0.284448 0.34525 0.272329 0.323158 0.279871 0.336624 0.267828 0.316424 0.34525 0.437011 0.323158 0.395136 0.336624 0.422681 0.316424 0.383199 0.182134 0.204978 0.176483 0.196968 0.180973 0.203281 0.17542 0.195497 0.204978 0.233942 0.196968 0.222315 0.203281 0.231494 0.195497 0.220193 0.233942 0.272329 0.222315 0.254178 0.231494 0.267828 0.220193 0.250905 0.272329 0.323158 0.254178 0.294078 0.267828 0.316424 0.250905 0.289387 0.323158 0.395136 0.294078 0.345917 0.316424 0.383199 0.289387 0.337343 0.395136 0.500743 0.345917 0.408856 0.383199 0.474056 0.337343 0.395967 0.176483 0.196968 0.169355 0.187211 0.17542 0.195497 0.168418 0.185946 0.196968 0.222315 0.187211 0.208621 0.195497 0.220193 0.185946 0.206869 0.222315 0.254178 0.208621 0.234187 0.220193 0.250905 0.206869 0.231745 0.254178 0.294078 0.234187 0.264642 0.250905 0.289387 0.231745 0.261065 0.294078 0.345917 0.264642 0.299595 0.289387 0.337343 0.261065 0.294621 0.345917 0.408856 0.299595 0.337754 0.337343 0.395967 0.294621 0.330493 0.408856 0.477729 0.337754 0.372771 0.395967 0.455815 0.330493 0.362681 0.477729 0.523397 0.372771 0.394793 0.455815 0.495884 0.362681 0.382939 0.523397 0.523777 0.394793 0.39471 0.495884 0.498824 0.382939 0.3831 0.523777 0.476291 0.39471 0.372023 0.498824 0.458222 0.3831 0.362293 0.169355 0.187211 0.161059 0.176585 0.168418 0.185946 0.160256 0.175522 0.187211 0.208621 0.176585 0.194223 0.185946 0.206869 0.175522 0.192814 0.208621 0.234187 0.194223 0.214391 0.206869 0.231745 0.192814 0.212494 0.234187 0.264642 0.214391 0.236926 0.231745 0.261065 0.212494 0.234396 0.264642 0.299595 0.236926 0.261086 0.261065 0.294621 0.234396 0.257662 0.299595 0.337754 0.261086 0.284448 0.294621 0.330493 0.257662 0.279993 0.337754 0.372771 0.284448 0.305235 0.330493 0.362681 0.279993 0.299615 0.372771 0.394793 0.305235 0.317146 0.362681 0.382939 0.299615 0.310914 0.394793 0.39471 0.317146 0.316857 0.382939 0.3831 0.310914 0.31067 0.39471 0.372023 0.316857 0.302961 0.3831 0.362293 0.31067 0.297595 0.160258 0.175525 0.168421 0.185949 0.157916 0.172447 0.165699 0.182299 0.175525 0.192818 0.185949 0.206873 0.172447 0.188759 0.182299 0.201879 0.192818 0.212499 0.206873 0.23175 0.188759 0.207106 0.201879 0.224801 0.212499 0.234403 0.23175 0.261072 0.207106 0.227224 0.224801 0.251268 0.234403 0.257672 0.261072 0.294631 0.227224 0.248202 0.251268 0.28064 0.257672 0.280008 0.294631 0.33051 0.248202 0.268272 0.28064 0.310603 0.280008 0.299637 0.33051 0.362709 0.268272 0.283789 0.310603 0.337297 0.299637 0.310946 0.362709 0.382982 0.283789 0.294336 0.337297 0.35359 0.310946 0.310707 0.382982 0.38315 0.294336 0.29416 0.35359 0.353542 0.310707 0.297633 0.38315 0.362343 0.29416 0.283153 0.353542 0.337036 0.168421 0.185949 0.175422 0.1955 0.165699 0.182299 0.17235 0.191268 0.185949 0.206873 0.1955 0.220197 0.182299 0.201879 0.191268 0.214191 0.206873 0.23175 0.220197 0.25091 0.201879 0.224801 0.214191 0.24211 0.23175 0.261072 0.25091 0.289394 0.224801 0.251268 0.24211 0.276206 0.261072 0.294631 0.289394 0.337352 0.251268 0.28064 0.276206 0.31704 0.294631 0.33051 0.337352 0.395978 0.28064 0.310603 0.31704 0.363063 0.33051 0.362709 0.395978 0.455853 0.310603 0.337297 0.363063 0.410145 0.362709 0.382982 0.455853 0.495983 0.337297 0.35359 0.410145 0.438086 0.382982 0.38315 0.495983 0.498911 0.35359 0.353542 0.438086 0.437789 0.38315 0.362343 0.498911 0.458296 0.353542 0.337036 0.437789 0.411123 0.175422 0.1955 0.180975 0.203283 0.17235 0.191268 0.177597 0.198517 0.1955 0.220197 0.203283 0.231497 0.191268 0.214191 0.198517 0.224517 0.220197 0.25091 0.231497 0.267832 0.214191 0.24211 0.224517 0.257336 0.25091 0.289394 0.267832 0.31643 0.24211 0.276206 0.257336 0.298656 0.289394 0.337352 0.31643 0.383206 0.276206 0.31704 0.298656 0.354348 0.180975 0.203283 0.184554 0.208505 0.177597 0.198517 0.180981 0.203301 0.203283 0.231497 0.208505 0.239201 0.198517 0.224517 0.203301 0.231465 0.231497 0.267832 0.239201 0.279874 0.224517 0.257336 0.231465 0.268551 0.267832 0.31643 0.279874 0.336627 0.257336 0.298656 0.268551 0.316521 0.31643 0.383206 0.336627 0.422702 0.298656 0.354348 0.316521 0.383259 0.184554 0.208505 0.185823 0.210251 0.180981 0.203301 0.182146 0.20499 0.208505 0.239201 0.210251 0.242749 0.203301 0.231465 0.20499 0.234039 0.239201 0.279874 0.242749 0.28443 0.231465 0.268551 0.234039 0.272036 0.279874 0.336627 0.28443 0.345496 0.268551 0.316521 0.272036 0.323135 0.336627 0.422702 0.345496 0.436339 0.316521 0.383259 0.323135 0.395126 0.185823 0.210251 0.184553 0.208504 0.182146 0.20499 0.18098 0.2033 0.210251 0.242749 0.208504 0.239199 0.20499 0.234039 0.2033 0.231463 0.242749 0.28443 0.239199 0.279871 0.234039 0.272036 0.231463 0.268549 0.28443 0.345496 0.279871 0.336624 0.272036 0.323135 0.268549 0.316517 0.345496 0.436339 0.336624 0.422681 0.323135 0.395126 0.316517 0.38326 0.184553 0.208504 0.180973 0.203281 0.18098 0.2033 0.177596 0.198515 0.208504 0.239199 0.203281 0.231494 0.2033 0.231463 0.198515 0.224514 0.239199 0.279871 0.231494 0.267828 0.231463 0.268549 0.224514 0.257332 0.279871 0.336624 0.267828 0.316424 0.268549 0.316517 0.257332 0.29865 0.336624 0.422681 0.316424 0.383199 0.316517 0.38326 0.29865 0.354336 0.180973 0.203281 0.17542 0.195497 0.177596 0.198515 0.172348 0.191265 0.203281 0.231494 0.195497 0.220193 0.198515 0.224514 0.191265 0.214187 0.231494 0.267828 0.220193 0.250905 0.224514 0.257332 0.214187 0.242105 0.267828 0.316424 0.250905 0.289387 0.257332 0.29865 0.242105 0.276199 0.316424 0.383199 0.289387 0.337343 0.29865 0.354336 0.276199 0.31703 0.17542 0.195497 0.168418 0.185946 0.172348 0.191265 0.165697 0.182296 0.195497 0.220193 0.185946 0.206869 0.191265 0.214187 0.182296 0.201875 0.220193 0.250905 0.206869 0.231745 0.214187 0.242105 0.201875 0.224796 0.250905 0.289387 0.231745 0.261065 0.242105 0.276199 0.224796 0.251261 0.289387 0.337343 0.261065 0.294621 0.276199 0.31703 0.251261 0.28063 0.337343 0.395967 0.294621 0.330493 0.31703 0.363051 0.28063 0.31059 0.395967 0.455815 0.330493 0.362681 0.363051 0.410138 0.31059 0.337277 0.455815 0.495884 0.362681 0.382939 0.410138 0.43807 0.337277 0.353561 0.495884 0.498824 0.382939 0.3831 0.43807 0.437742 0.353561 0.353505 0.498824 0.458222 0.3831 0.362293 0.437742 0.411071 0.353505 0.336998 0.168418 0.185946 0.160256 0.175522 0.165697 0.182296 0.157914 0.172443 0.185946 0.206869 0.175522 0.192814 0.182296 0.201875 0.172443 0.188755 0.206869 0.231745 0.192814 0.212494 0.201875 0.224796 0.188755 0.207101 0.231745 0.261065 0.212494 0.234396 0.224796 0.251261 0.207101 0.227217 0.261065 0.294621 0.234396 0.257662 0.251261 0.28063 0.227217 0.248193 0.294621 0.330493 0.257662 0.279993 0.28063 0.31059 0.248193 0.268259 0.330493 0.362681 0.279993 0.299615 0.31059 0.337277 0.268259 0.28377 0.362681 0.382939 0.299615 0.310914 0.337277 0.353561 0.28377 0.294311 0.382939 0.3831 0.310914 0.31067 0.353561 0.353505 0.294311 0.29413 0.3831 0.362293 0.31067 0.297595 0.353505 0.336998 0.29413 0.283123 0.157916 0.172447 0.165699 0.182299 0.154224 0.167648 0.161435 0.176658 0.172447 0.188759 0.182299 0.201879 0.167648 0.182513 0.176658 0.194293 0.188759 0.207106 0.201879 0.224801 0.182513 0.198939 0.194293 0.214467 0.207106 0.227224 0.224801 0.251268 0.198939 0.216569 0.214467 0.237073 0.227224 0.248202 0.251268 0.28064 0.216569 0.234511 0.237073 0.2613 0.248202 0.268272 0.28064 0.310603 0.234511 0.251164 0.2613 0.285093 0.268272 0.283789 0.310603 0.337297 0.251164 0.264463 0.285093 0.304986 0.283789 0.294336 0.337297 0.35359 0.264463 0.271786 0.304986 0.316784 0.294336 0.29416 0.35359 0.353542 0.271786 0.271616 0.316784 0.316682 0.29416 0.283153 0.353542 0.337036 0.271616 0.263495 0.316682 0.30468 0.165699 0.182299 0.17235 0.191268 0.161435 0.176658 0.167567 0.184781 0.182299 0.201879 0.191268 0.214191 0.176658 0.194293 0.184781 0.205195 0.201879 0.224801 0.214191 0.24211 0.194293 0.214467 0.205195 0.229365 0.224801 0.251268 0.24211 0.276206 0.214467 0.237073 0.229365 0.257729 0.251268 0.28064 0.276206 0.31704 0.237073 0.2613 0.257729 0.289925 0.28064 0.310603 0.31704 0.363063 0.2613 0.285093 0.289925 0.323632 0.310603 0.337297 0.363063 0.410145 0.285093 0.304986 0.323632 0.353965 0.337297 0.35359 0.410145 0.438086 0.304986 0.316784 0.353965 0.372011 0.35359 0.353542 0.438086 0.437789 0.316784 0.316682 0.372011 0.372079 0.353542 0.337036 0.437789 0.411123 0.316682 0.30468 0.372079 0.354717 0.17235 0.191268 0.177597 0.198517 0.167567 0.184781 0.172371 0.191286 0.191268 0.214191 0.198517 0.224517 0.184781 0.205195 0.191286 0.214214 0.214191 0.24211 0.224517 0.257336 0.205195 0.229365 0.214214 0.242114 0.24211 0.276206 0.257336 0.298656 0.229365 0.257729 0.242114 0.276081 0.276206 0.31704 0.298656 0.354348 0.257729 0.289925 0.276081 0.31707 0.31704 0.363063 0.354348 0.421108 0.289925 0.323632 0.31707 0.363059 0.438086 0.437789 0.550058 0.550383 0.372011 0.372079 0.43772 0.437766 0.177597 0.198517 0.180981 0.203301 0.172371 0.191286 0.175452 0.195528 0.198517 0.224517 0.203301 0.231465 0.191286 0.214214 0.195528 0.220241 0.224517 0.257336 0.231465 0.268551 0.214214 0.242114 0.220241 0.250921 0.257336 0.298656 0.268551 0.316521 0.242114 0.276081 0.250921 0.289187 0.298656 0.354348 0.316521 0.383259 0.276081 0.31707 0.289187 0.337423 0.180981 0.203301 0.182146 0.20499 0.175452 0.195528 0.176515 0.197007 0.203301 0.231465 0.20499 0.234039 0.195528 0.220241 0.197007 0.22235 0.231465 0.268551 0.234039 0.272036 0.220241 0.250921 0.22235 0.254102 0.268551 0.316521 0.272036 0.323135 0.250921 0.289187 0.254102 0.294008 0.316521 0.383259 0.323135 0.395126 0.289187 0.337423 0.294008 0.345945 0.383259 0.474094 0.395126 0.500752 0.337423 0.395816 0.345945 0.40897 0.691465 0.691813 0.770902 0.771324 0.4977 0.498725 0.523836 0.524132 0.182146 0.20499 0.18098 0.2033 0.176515 0.197007 0.175451 0.195527 0.20499 0.234039 0.2033 0.231463 0.197007 0.22235 0.195527 0.220239 0.234039 0.272036 0.231463 0.268549 0.22235 0.254102 0.220239 0.250919 0.272036 0.323135 0.268549 0.316517 0.254102 0.294008 0.250919 0.289184 0.323135 0.395126 0.316517 0.38326 0.294008 0.345945 0.289184 0.337405 0.395126 0.500752 0.38326 0.474046 0.345945 0.40897 0.337405 0.395909 0.18098 0.2033 0.177596 0.198515 0.175451 0.195527 0.17237 0.191284 0.2033 0.231463 0.198515 0.224514 0.195527 0.220239 0.191284 0.214211 0.231463 0.268549 0.224514 0.257332 0.220239 0.250919 0.214211 0.24211 0.268549 0.316517 0.257332 0.29865 0.250919 0.289184 0.24211 0.276073 0.316517 0.38326 0.29865 0.354336 0.289184 0.337405 0.276073 0.317064 0.177596 0.198515 0.172348 0.191265 0.17237 0.191284 0.167565 0.184778 0.198515 0.224514 0.191265 0.214187 0.191284 0.214211 0.184778 0.205192 0.224514 0.257332 0.214187 0.242105 0.214211 0.24211 0.205192 0.22936 0.257332 0.29865 0.242105 0.276199 0.24211 0.276073 0.22936 0.257723 0.29865 0.354336 0.276199 0.31703 0.276073 0.317064 0.257723 0.289912 0.354336 0.421107 0.31703 0.363051 0.317064 0.362989 0.289912 0.323633 0.549974 0.550318 0.43807 0.437742 0.438006 0.437693 0.371976 0.372054 0.172348 0.191265 0.165697 0.182296 0.167565 0.184778 0.161433 0.176655 0.191265 0.214187 0.182296 0.201875 0.184778 0.205192 0.176655 0.19429 0.214187 0.242105 0.201875 0.224796 0.205192 0.22936 0.19429 0.214462 0.242105 0.276199 0.224796 0.251261 0.22936 0.257723 0.214462 0.237066 0.276199 0.31703 0.251261 0.28063 0.257723 0.289912 0.237066 0.261292 0.31703 0.363051 0.28063 0.31059 0.289912 0.323633 0.261292 0.285081 0.363051 0.410138 0.31059 0.337277 0.323633 0.353942 0.285081 0.304972 0.410138 0.43807 0.337277 0.353561 0.353942 0.371976 0.304972 0.316765 0.43807 0.437742 0.353561 0.353505 0.371976 0.372054 0.316765 0.316656 0.437742 0.411071 0.353505 0.336998 0.372054 0.35468 0.316656 0.304653 0.165697 0.182296 0.157914 0.172443 0.161433 0.176655 0.154221 0.167645 0.182296 0.201875 0.172443 0.188755 0.176655 0.19429 0.167645 0.18251 0.201875 0.224796 0.188755 0.207101 0.19429 0.214462 0.18251 0.198934 0.224796 0.251261 0.207101 0.227217 0.214462 0.237066 0.198934 0.216563 0.251261 0.28063 0.227217 0.248193 0.237066 0.261292 0.216563 0.234502 0.28063 0.31059 0.248193 0.268259 0.261292 0.285081 0.234502 0.251153 0.31059 0.337277 0.268259 0.28377 0.285081 0.304972 0.251153 0.264449 0.337277 0.353561 0.28377 0.294311 0.304972 0.316765 0.264449 0.271767 0.353561 0.353505 0.294311 0.29413 0.316765 0.316656 0.271767 0.271595 0.353505 0.336998 0.29413 0.283123 0.316656 0.304653 0.271595 0.263472 0.154224 0.167648 0.161435 0.176658 0.149448 0.161541 0.155968 0.169555 0.167648 0.182513 0.176658 0.194293 0.161541 0.174703 0.169555 0.184954 0.182513 0.198939 0.194293 0.214467 0.174703 0.188938 0.184954 0.202089 0.198939 0.216569 0.214467 0.237073 0.188938 0.203838 0.202089 0.220654 0.216569 0.234511 0.237073 0.2613 0.203838 0.218601 0.220654 0.239769 0.234511 0.251164 0.2613 0.285093 0.218601 0.231961 0.239769 0.257784 0.251164 0.264463 0.285093 0.304986 0.231961 0.242284 0.257784 0.272243 0.264463 0.271786 0.304986 0.316784 0.242284 0.247948 0.272243 0.280434 0.271786 0.271616 0.316784 0.316682 0.247948 0.247844 0.280434 0.280334 0.271616 0.263495 0.316682 0.30468 0.247844 0.241645 0.280334 0.272096 0.161435 0.176658 0.167567 0.184781 0.155968 0.169555 0.16148 0.1767 0.176658 0.194293 0.184781 0.205195 0.169555 0.184954 0.1767 0.194289 0.194293 0.214467 0.205195 0.229365 0.184954 0.202089 0.194289 0.214436 0.214467 0.237073 0.229365 0.257729 0.202089 0.220654 0.214436 0.237019 0.237073 0.2613 0.257729 0.289925 0.220654 0.239769 0.237019 0.261246 0.2613 0.285093 0.289925 0.323632 0.239769 0.257784 0.261246 0.285032 0.285093 0.304986 0.323632 0.353965 0.257784 0.272243 0.285032 0.30487 0.304986 0.316784 0.353965 0.372011 0.272243 0.280434 0.30487 0.316641 0.316784 0.316682 0.372011 0.372079 0.280434 0.280334 0.316641 0.316639 0.316682 0.30468 0.372079 0.354717 0.280334 0.272096 0.316639 0.304599 0.167567 0.184781 0.172371 0.191286 0.16148 0.1767 0.165768 0.182364 0.184781 0.205195 0.191286 0.214214 0.1767 0.194289 0.182364 0.201881 0.205195 0.229365 0.214214 0.242114 0.194289 0.214436 0.201881 0.22475 0.229365 0.257729 0.242114 0.276081 0.214436 0.237019 0.22475 0.251184 0.257729 0.289925 0.276081 0.31707 0.237019 0.261246 0.251184 0.280511 0.289925 0.323632 0.31707 0.363059 0.261246 0.285032 0.280511 0.310562 0.323632 0.353965 0.363059 0.40976 0.285032 0.30487 0.310562 0.336957 0.353965 0.372011 0.40976 0.43772 0.30487 0.316641 0.336957 0.353419 0.372011 0.372079 0.43772 0.437766 0.316641 0.316639 0.353419 0.353466 0.372079 0.354717 0.437766 0.411062 0.316639 0.304599 0.353466 0.337081 0.172371 0.191286 0.175452 0.195528 0.165768 0.182364 0.1685 0.186027 0.191286 0.214214 0.195528 0.220241 0.182364 0.201881 0.186027 0.206878 0.214214 0.242114 0.220241 0.250921 0.201881 0.22475 0.206878 0.231685 0.242114 0.276081 0.250921 0.289187 0.22475 0.251184 0.231685 0.260984 0.276081 0.31707 0.289187 0.337423 0.251184 0.280511 0.260984 0.294409 0.31707 0.363059 0.337423 0.395816 0.280511 0.310562 0.294409 0.329687 0.363059 0.40976 0.395816 0.457026 0.310562 0.336957 0.329687 0.362553 0.40976 0.43772 0.457026 0.4977 0.336957 0.353419 0.362553 0.382939 0.43772 0.437766 0.4977 0.498725 0.353419 0.353466 0.382939 0.383057 0.437766 0.411062 0.498725 0.458277 0.353466 0.337081 0.383057 0.362362 0.175452 0.195528 0.176515 0.197007 0.1685 0.186027 0.16944 0.187295 0.195528 0.220241 0.197007 0.22235 0.186027 0.206878 0.187295 0.208629 0.220241 0.250921 0.22235 0.254102 0.206878 0.231685 0.208629 0.234138 0.250921 0.289187 0.254102 0.294008 0.231685 0.260984 0.234138 0.26453 0.289187 0.337423 0.294008 0.345945 0.260984 0.294409 0.26453 0.299462 0.337423 0.395816 0.345945 0.40897 0.294409 0.329687 0.299462 0.337301 0.395816 0.457026 0.40897 0.47743 0.329687 0.362553 0.337301 0.372516 0.457026 0.4977 0.47743 0.523836 0.362553 0.382939 0.372516 0.394631 0.4977 0.498725 0.523836 0.524132 0.382939 0.383057 0.394631 0.394661 0.498725 0.458277 0.524132 0.476247 0.383057 0.362362 0.394661 0.372072 0.176515 0.197007 0.175451 0.195527 0.16944 0.187295 0.168499 0.186026 0.197007 0.22235 0.195527 0.220239 0.187295 0.208629 0.186026 0.206877 0.22235 0.254102 0.220239 0.250919 0.208629 0.234138 0.206877 0.231683 0.254102 0.294008 0.250919 0.289184 0.234138 0.26453 0.231683 0.260979 0.294008 0.345945 0.289184 0.337405 0.26453 0.299462 0.260979 0.294403 0.345945 0.40897 0.337405 0.395909 0.299462 0.337301 0.294403 0.329655 0.40897 0.47743 0.395909 0.455766 0.337301 0.372516 0.329655 0.3624 0.47743 0.523836 0.455766 0.495828 0.372516 0.394631 0.3624 0.382746 0.523836 0.524132 0.495828 0.498815 0.394631 0.394661 0.382746 0.383028 0.524132 0.476247 0.498815 0.458162 0.394661 0.372072 0.383028 0.362334 0.175451 0.195527 0.17237 0.191284 0.168499 0.186026 0.165766 0.182362 0.195527 0.220239 0.191284 0.214211 0.186026 0.206877 0.182362 0.201879 0.220239 0.250919 0.214211 0.24211 0.206877 0.231683 0.201879 0.224746 0.250919 0.289184 0.24211 0.276073 0.231683 0.260979 0.224746 0.251178 0.289184 0.337405 0.276073 0.