<?xml version="1.0" ?> 
<!-- 
# vtk DataFile Version 3.0
#This file was generated by the deal.II library on 16:49:17 at 2019/11/27
-->
<VTKFile type="UnstructuredGrid" version="0.1" byte_order="LittleEndian">
<UnstructuredGrid>
<Piece NumberOfPoints="29336" NumberOfCells="3667" >
  <Points>
    <DataArray type="Float32" NumberOfComponents="3" format="ascii">
-50 -50 0
-40 -50 0
-50 -40 0
-40 -40 0
-50 -50 10
-40 -50 10
-50 -40 10
-40 -40 10
-40 -50 0
-30 -50 0
-40 -40 0
-30 -40 0
-40 -50 10
-30 -50 10
-40 -40 10
-30 -40 10
-30 -50 0
-20 -50 0
-30 -40 0
-20 -40 0
-30 -50 10
-20 -50 10
-30 -40 10
-20 -40 10
-20 -50 0
-10 -50 0
-20 -40 0
-10 -40 0
-20 -50 10
-10 -50 10
-20 -40 10
-10 -40 10
-10 -50 0
0 -50 0
-10 -40 0
0 -40 0
-10 -50 10
0 -50 10
-10 -40 10
0 -40 10
0 -50 0
10 -50 0
0 -40 0
10 -40 0
0 -50 10
10 -50 10
0 -40 10
10 -40 10
10 -50 0
20 -50 0
10 -40 0
20 -40 0
10 -50 10
20 -50 10
10 -40 10
20 -40 10
20 -50 0
30 -50 0
20 -40 0
30 -40 0
20 -50 10
30 -50 10
20 -40 10
30 -40 10
30 -50 0
40 -50 0
30 -40 0
40 -40 0
30 -50 10
40 -50 10
30 -40 10
40 -40 10
40 -50 0
50 -50 0
40 -40 0
50 -40 0
40 -50 10
50 -50 10
40 -40 10
50 -40 10
-50 -40 0
-40 -40 0
-50 -30 0
-40 -30 0
-50 -40 10
-40 -40 10
-50 -30 10
-40 -30 10
-40 -40 0
-30 -40 0
-40 -30 0
-30 -30 0
-40 -40 10
-30 -40 10
-40 -30 10
-30 -30 10
-30 -40 0
-20 -40 0
-30 -30 0
-20 -30 0
-30 -40 10
-20 -40 10
-30 -30 10
-20 -30 10
-20 -40 0
-10 -40 0
-20 -30 0
-10 -30 0
-20 -40 10
-10 -40 10
-20 -30 10
-10 -30 10
-10 -40 0
0 -40 0
-10 -30 0
0 -30 0
-10 -40 10
0 -40 10
-10 -30 10
0 -30 10
0 -40 0
10 -40 0
0 -30 0
10 -30 0
0 -40 10
10 -40 10
0 -30 10
10 -30 10
10 -40 0
20 -40 0
10 -30 0
20 -30 0
10 -40 10
20 -40 10
10 -30 10
20 -30 10
20 -40 0
30 -40 0
20 -30 0
30 -30 0
20 -40 10
30 -40 10
20 -30 10
30 -30 10
30 -40 0
40 -40 0
30 -30 0
40 -30 0
30 -40 10
40 -40 10
30 -30 10
40 -30 10
40 -40 0
50 -40 0
40 -30 0
50 -30 0
40 -40 10
50 -40 10
40 -30 10
50 -30 10
-50 -30 0
-40 -30 0
-50 -20 0
-40 -20 0
-50 -30 10
-40 -30 10
-50 -20 10
-40 -20 10
-40 -30 0
-30 -30 0
-40 -20 0
-30 -20 0
-40 -30 10
-30 -30 10
-40 -20 10
-30 -20 10
-30 -30 0
-20 -30 0
-30 -20 0
-20 -20 0
-30 -30 10
-20 -30 10
-30 -20 10
-20 -20 10
-20 -30 0
-10 -30 0
-20 -20 0
-10 -20 0
-20 -30 10
-10 -30 10
-20 -20 10
-10 -20 10
-10 -30 0
0 -30 0
-10 -20 0
0 -20 0
-10 -30 10
0 -30 10
-10 -20 10
0 -20 10
-50 -20 0
-40 -20 0
-50 -10 0
-40 -10 0
-50 -20 10
-40 -20 10
-50 -10 10
-40 -10 10
-40 -20 0
-30 -20 0
-40 -10 0
-30 -10 0
-40 -20 10
-30 -20 10
-40 -10 10
-30 -10 10
-30 -20 0
-20 -20 0
-30 -10 0
-20 -10 0
-30 -20 10
-20 -20 10
-30 -10 10
-20 -10 10
-20 -20 0
-10 -20 0
-20 -10 0
-10 -10 0
-20 -20 10
-10 -20 10
-20 -10 10
-10 -10 10
-10 -20 0
0 -20 0
-10 -10 0
0 -10 0
-10 -20 10
0 -20 10
-10 -10 10
0 -10 10
-50 -10 0
-40 -10 0
-50 0 0
-40 0 0
-50 -10 10
-40 -10 10
-50 0 10
-40 0 10
-40 -10 0
-30 -10 0
-40 0 0
-30 0 0
-40 -10 10
-30 -10 10
-40 0 10
-30 0 10
-30 -10 0
-20 -10 0
-30 0 0
-20 0 0
-30 -10 10
-20 -10 10
-30 0 10
-20 0 10
-50 0 0
-40 0 0
-50 10 0
-40 10 0
-50 0 10
-40 0 10
-50 10 10
-40 10 10
-40 0 0
-30 0 0
-40 10 0
-30 10 0
-40 0 10
-30 0 10
-40 10 10
-30 10 10
-30 0 0
-20 0 0
-30 10 0
-20 10 0
-30 0 10
-20 0 10
-30 10 10
-20 10 10
-50 10 0
-40 10 0
-50 20 0
-40 20 0
-50 10 10
-40 10 10
-50 20 10
-40 20 10
-40 10 0
-30 10 0
-40 20 0
-30 20 0
-40 10 10
-30 10 10
-40 20 10
-30 20 10
-30 10 0
-20 10 0
-30 20 0
-20 20 0
-30 10 10
-20 10 10
-30 20 10
-20 20 10
-20 10 0
-10 10 0
-20 20 0
-10 20 0
-20 10 10
-10 10 10
-20 20 10
-10 20 10
-10 10 0
0 10 0
-10 20 0
0 20 0
-10 10 10
0 10 10
-10 20 10
0 20 10
-50 20 0
-40 20 0
-50 30 0
-40 30 0
-50 20 10
-40 20 10
-50 30 10
-40 30 10
-40 20 0
-30 20 0
-40 30 0
-30 30 0
-40 20 10
-30 20 10
-40 30 10
-30 30 10
-30 20 0
-20 20 0
-30 30 0
-20 30 0
-30 20 10
-20 20 10
-30 30 10
-20 30 10
-20 20 0
-10 20 0
-20 30 0
-10 30 0
-20 20 10
-10 20 10
-20 30 10
-10 30 10
-10 20 0
0 20 0
-10 30 0
0 30 0
-10 20 10
0 20 10
-10 30 10
0 30 10
-50 30 0
-40 30 0
-50 40 0
-40 40 0
-50 30 10
-40 30 10
-50 40 10
-40 40 10
-40 30 0
-30 30 0
-40 40 0
-30 40 0
-40 30 10
-30 30 10
-40 40 10
-30 40 10
-30 30 0
-20 30 0
-30 40 0
-20 40 0
-30 30 10
-20 30 10
-30 40 10
-20 40 10
-20 30 0
-10 30 0
-20 40 0
-10 40 0
-20 30 10
-10 30 10
-20 40 10
-10 40 10
-10 30 0
0 30 0
-10 40 0
0 40 0
-10 30 10
0 30 10
-10 40 10
0 40 10
0 30 0
10 30 0
0 40 0
10 40 0
0 30 10
10 30 10
0 40 10
10 40 10
10 30 0
20 30 0
10 40 0
20 40 0
10 30 10
20 30 10
10 40 10
20 40 10
20 30 0
30 30 0
20 40 0
30 40 0
20 30 10
30 30 10
20 40 10
30 40 10
30 30 0
40 30 0
30 40 0
40 40 0
30 30 10
40 30 10
30 40 10
40 40 10
40 30 0
50 30 0
40 40 0
50 40 0
40 30 10
50 30 10
40 40 10
50 40 10
-50 40 0
-40 40 0
-50 50 0
-40 50 0
-50 40 10
-40 40 10
-50 50 10
-40 50 10
-40 40 0
-30 40 0
-40 50 0
-30 50 0
-40 40 10
-30 40 10
-40 50 10
-30 50 10
-30 40 0
-20 40 0
-30 50 0
-20 50 0
-30 40 10
-20 40 10
-30 50 10
-20 50 10
-20 40 0
-10 40 0
-20 50 0
-10 50 0
-20 40 10
-10 40 10
-20 50 10
-10 50 10
-10 40 0
0 40 0
-10 50 0
0 50 0
-10 40 10
0 40 10
-10 50 10
0 50 10
0 40 0
10 40 0
0 50 0
10 50 0
0 40 10
10 40 10
0 50 10
10 50 10
10 40 0
20 40 0
10 50 0
20 50 0
10 40 10
20 40 10
10 50 10
20 50 10
20 40 0
30 40 0
20 50 0
30 50 0
20 40 10
30 40 10
20 50 10
30 50 10
30 40 0
40 40 0
30 50 0
40 50 0
30 40 10
40 40 10
30 50 10
40 50 10
40 40 0
50 40 0
40 50 0
50 50 0
40 40 10
50 40 10
40 50 10
50 50 10
-50 -50 10
-40 -50 10
-50 -40 10
-40 -40 10
-50 -50 20
-40 -50 20
-50 -40 20
-40 -40 20
-40 -50 10
-30 -50 10
-40 -40 10
-30 -40 10
-40 -50 20
-30 -50 20
-40 -40 20
-30 -40 20
-30 -50 10
-20 -50 10
-30 -40 10
-20 -40 10
-30 -50 20
-20 -50 20
-30 -40 20
-20 -40 20
-20 -50 10
-10 -50 10
-20 -40 10
-10 -40 10
-20 -50 20
-10 -50 20
-20 -40 20
-10 -40 20
-10 -50 10
0 -50 10
-10 -40 10
0 -40 10
-10 -50 20
0 -50 20
-10 -40 20
0 -40 20
0 -50 10
10 -50 10
0 -40 10
10 -40 10
0 -50 20
10 -50 20
0 -40 20
10 -40 20
10 -50 10
20 -50 10
10 -40 10
20 -40 10
10 -50 20
20 -50 20
10 -40 20
20 -40 20
20 -50 10
30 -50 10
20 -40 10
30 -40 10
20 -50 20
30 -50 20
20 -40 20
30 -40 20
30 -50 10
40 -50 10
30 -40 10
40 -40 10
30 -50 20
40 -50 20
30 -40 20
40 -40 20
40 -50 10
50 -50 10
40 -40 10
50 -40 10
40 -50 20
50 -50 20
40 -40 20
50 -40 20
-50 -40 10
-40 -40 10
-50 -30 10
-40 -30 10
-50 -40 20
-40 -40 20
-50 -30 20
-40 -30 20
-40 -40 10
-30 -40 10
-40 -30 10
-30 -30 10
-40 -40 20
-30 -40 20
-40 -30 20
-30 -30 20
-30 -40 10
-20 -40 10
-30 -30 10
-20 -30 10
-30 -40 20
-20 -40 20
-30 -30 20
-20 -30 20
-20 -40 10
-10 -40 10
-20 -30 10
-10 -30 10
-20 -40 20
-10 -40 20
-20 -30 20
-10 -30 20
-10 -40 10
0 -40 10
-10 -30 10
0 -30 10
-10 -40 20
0 -40 20
-10 -30 20
0 -30 20
0 -40 10
10 -40 10
0 -30 10
10 -30 10
0 -40 20
10 -40 20
0 -30 20
10 -30 20
10 -40 10
20 -40 10
10 -30 10
20 -30 10
10 -40 20
20 -40 20
10 -30 20
20 -30 20
20 -40 10
30 -40 10
20 -30 10
30 -30 10
20 -40 20
30 -40 20
20 -30 20
30 -30 20
30 -40 10
40 -40 10
30 -30 10
40 -30 10
30 -40 20
40 -40 20
30 -30 20
40 -30 20
40 -40 10
50 -40 10
40 -30 10
50 -30 10
40 -40 20
50 -40 20
40 -30 20
50 -30 20
-50 -30 10
-40 -30 10
-50 -20 10
-40 -20 10
-50 -30 20
-40 -30 20
-50 -20 20
-40 -20 20
-40 -30 10
-30 -30 10
-40 -20 10
-30 -20 10
-40 -30 20
-30 -30 20
-40 -20 20
-30 -20 20
-30 -30 10
-20 -30 10
-30 -20 10
-20 -20 10
-30 -30 20
-20 -30 20
-30 -20 20
-20 -20 20
-20 -30 10
-10 -30 10
-20 -20 10
-10 -20 10
-20 -30 20
-10 -30 20
-20 -20 20
-10 -20 20
-10 -30 10
0 -30 10
-10 -20 10
0 -20 10
-10 -30 20
0 -30 20
-10 -20 20
0 -20 20
-50 -20 10
-40 -20 10
-50 -10 10
-40 -10 10
-50 -20 20
-40 -20 20
-50 -10 20
-40 -10 20
-40 -20 10
-30 -20 10
-40 -10 10
-30 -10 10
-40 -20 20
-30 -20 20
-40 -10 20
-30 -10 20
-30 -20 10
-20 -20 10
-30 -10 10
-20 -10 10
-30 -20 20
-20 -20 20
-30 -10 20
-20 -10 20
-20 -20 10
-10 -20 10
-20 -10 10
-10 -10 10
-20 -20 20
-10 -20 20
-20 -10 20
-10 -10 20
-10 -20 10
0 -20 10
-10 -10 10
0 -10 10
-10 -20 20
0 -20 20
-10 -10 20
0 -10 20
-50 -10 10
-40 -10 10
-50 0 10
-40 0 10
-50 -10 20
-40 -10 20
-50 0 20
-40 0 20
-40 -10 10
-30 -10 10
-40 0 10
-30 0 10
-40 -10 20
-30 -10 20
-40 0 20
-30 0 20
-30 -10 10
-20 -10 10
-30 0 10
-20 0 10
-30 -10 20
-20 -10 20
-30 0 20
-20 0 20
-20 -10 10
-10 -10 10
-20 0 10
-10 0 10
-20 -10 20
-10 -10 20
-20 0 20
-10 0 20
-10 -10 10
0 -10 10
-10 0 10
0 0 10
-10 -10 20
0 -10 20
-10 0 20
0 0 20
-50 0 10
-40 0 10
-50 10 10
-40 10 10
-50 0 20
-40 0 20
-50 10 20
-40 10 20
-40 0 10
-30 0 10
-40 10 10
-30 10 10
-40 0 20
-30 0 20
-40 10 20
-30 10 20
-30 0 10
-20 0 10
-30 10 10
-20 10 10
-30 0 20
-20 0 20
-30 10 20
-20 10 20
-20 0 10
-10 0 10
-20 10 10
-10 10 10
-20 0 20
-10 0 20
-20 10 20
-10 10 20
-10 0 10
0 0 10
-10 10 10
0 10 10
-10 0 20
0 0 20
-10 10 20
0 10 20
-50 10 10
-40 10 10
-50 20 10
-40 20 10
-50 10 20
-40 10 20
-50 20 20
-40 20 20
-40 10 10
-30 10 10
-40 20 10
-30 20 10
-40 10 20
-30 10 20
-40 20 20
-30 20 20
-30 10 10
-20 10 10
-30 20 10
-20 20 10
-30 10 20
-20 10 20
-30 20 20
-20 20 20
-20 10 10
-10 10 10
-20 20 10
-10 20 10
-20 10 20
-10 10 20
-20 20 20
-10 20 20
-10 10 10
0 10 10
-10 20 10
0 20 10
-10 10 20
0 10 20
-10 20 20
0 20 20
-50 20 10
-40 20 10
-50 30 10
-40 30 10
-50 20 20
-40 20 20
-50 30 20
-40 30 20
-40 20 10
-30 20 10
-40 30 10
-30 30 10
-40 20 20
-30 20 20
-40 30 20
-30 30 20
-30 20 10
-20 20 10
-30 30 10
-20 30 10
-30 20 20
-20 20 20
-30 30 20
-20 30 20
-20 20 10
-10 20 10
-20 30 10
-10 30 10
-20 20 20
-10 20 20
-20 30 20
-10 30 20
-10 20 10
0 20 10
-10 30 10
0 30 10
-10 20 20
0 20 20
-10 30 20
0 30 20
-50 30 10
-40 30 10
-50 40 10
-40 40 10
-50 30 20
-40 30 20
-50 40 20
-40 40 20
-40 30 10
-30 30 10
-40 40 10
-30 40 10
-40 30 20
-30 30 20
-40 40 20
-30 40 20
-30 30 10
-20 30 10
-30 40 10
-20 40 10
-30 30 20
-20 30 20
-30 40 20
-20 40 20
-20 30 10
-10 30 10
-20 40 10
-10 40 10
-20 30 20
-10 30 20
-20 40 20
-10 40 20
-10 30 10
0 30 10
-10 40 10
0 40 10
-10 30 20
0 30 20
-10 40 20
0 40 20
0 30 10
10 30 10
0 40 10
10 40 10
0 30 20
10 30 20
0 40 20
10 40 20
10 30 10
20 30 10
10 40 10
20 40 10
10 30 20
20 30 20
10 40 20
20 40 20
20 30 10
30 30 10
20 40 10
[...]
  <PointData Scalars="scalars">
    <DataArray type="Float32" Name="u" format="ascii">
0.168311 0.185023 0.177855 0.197359 0.167396 0.183802 0.176772 0.195879 0.185023 0.20392 0.197359 0.220783 0.183802 0.20229 0.195879 0.218717 0.20392 0.225316 0.220783 0.248699 0.20229 0.223129 0.218717 0.245758 0.225316 0.248738 0.248699 0.281516 0.223129 0.245809 0.245758 0.277296 0.248738 0.272753 0.281516 0.318195 0.245809 0.268892 0.277296 0.312081 0.272753 0.295603 0.318195 0.355729 0.268892 0.290569 0.312081 0.347134 0.295603 0.312316 0.355729 0.385781 0.290569 0.306377 0.347134 0.374693 0.312316 0.318524 0.385781 0.397626 0.306377 0.312198 0.374693 0.385362 0.318524 0.311969 0.397626 0.38588 0.312198 0.305987 0.385362 0.374714 0.311969 0.293072 0.38588 0.355218 0.305987 0.288304 0.374714 0.346788 0.177855 0.197359 0.186159 0.208886 0.176772 0.195879 0.184916 0.207134 0.197359 0.220783 0.208886 0.237234 0.195879 0.218717 0.207134 0.234664 0.220783 0.248699 0.237234 0.27296 0.218717 0.245758 0.234664 0.269094 0.248699 0.281516 0.27296 0.318093 0.245758 0.277296 0.269094 0.311968 0.281516 0.318195 0.318093 0.375389 0.277296 0.312081 0.311968 0.365501 0.318195 0.355729 0.375389 0.444131 0.312081 0.347134 0.365501 0.42805 0.355729 0.385781 0.444131 0.505323 0.347134 0.374693 0.42805 0.480572 0.385781 0.397626 0.505323 0.530195 0.374693 0.385362 0.480572 0.500666 0.397626 0.38588 0.530195 0.507155 0.385362 0.374714 0.500666 0.481461 0.38588 0.355218 0.507155 0.445772 0.374714 0.346788 0.481461 0.429767 0.186159 0.208886 0.192815 0.218491 0.184916 0.207134 0.19143 0.216479 0.208886 0.237234 0.218491 0.251493 0.207134 0.234664 0.216479 0.248439 0.237234 0.27296 0.251493 0.295591 0.234664 0.269094 0.248439 0.290719 0.27296 0.318093 0.295591 0.35572 0.269094 0.311968 0.290719 0.347159 0.318093 0.375389 0.35572 0.444763 0.311968 0.365501 0.347159 0.428037 0.192815 0.218491 0.197161 0.224938 0.19143 0.216479 0.195688 0.222691 0.218491 0.251493 0.224938 0.26197 0.216479 0.248439 0.222691 0.258682 0.251493 0.295591 0.26197 0.311896 0.248439 0.290719 0.258682 0.305637 0.295591 0.35572 0.311896 0.383054 0.290719 0.347159 0.305637 0.373764 0.35572 0.444763 0.383054 0.503188 0.347159 0.428037 0.373764 0.481699 0.197161 0.224938 0.198674 0.227252 0.195688 0.222691 0.19716 0.224939 0.224938 0.26197 0.227252 0.265445 0.222691 0.258682 0.224939 0.261972 0.26197 0.311896 0.265445 0.319959 0.258682 0.305637 0.261972 0.311898 0.198674 0.227252 0.197161 0.224938 0.19716 0.224939 0.195689 0.222691 0.227252 0.265445 0.224938 0.261971 0.224939 0.261972 0.222691 0.258682 0.265445 0.319959 0.261971 0.311897 0.261972 0.311898 0.258682 0.305637 0.197161 0.224938 0.192816 0.218492 0.195689 0.222691 0.191431 0.21648 0.224938 0.261971 0.218492 0.251494 0.222691 0.258682 0.21648 0.248441 0.261971 0.311897 0.251494 0.295593 0.258682 0.305637 0.248441 0.290721 0.311897 0.383055 0.295593 0.355723 0.305637 0.373765 0.290721 0.347162 0.383055 0.503189 0.355723 0.444768 0.373765 0.481698 0.347162 0.428043 0.192816 0.218492 0.18616 0.208887 0.191431 0.21648 0.184917 0.207135 0.218492 0.251494 0.208887 0.237236 0.21648 0.248441 0.207135 0.234665 0.251494 0.295593 0.237236 0.272963 0.248441 0.290721 0.234665 0.269096 0.295593 0.355723 0.272963 0.318098 0.290721 0.347162 0.269096 0.311972 0.355723 0.444768 0.318098 0.375398 0.347162 0.428043 0.311972 0.36551 0.18616 0.208887 0.177856 0.19736 0.184917 0.207135 0.176773 0.19588 0.208887 0.237236 0.19736 0.220785 0.207135 0.234665 0.19588 0.218719 0.237236 0.272963 0.220785 0.248703 0.234665 0.269096 0.218719 0.245761 0.272963 0.318098 0.248703 0.281523 0.269096 0.311972 0.245761 0.277302 0.318098 0.375398 0.281523 0.318205 0.311972 0.36551 0.277302 0.312091 0.375398 0.444146 0.318205 0.355745 0.36551 0.428068 0.312091 0.347151 0.444146 0.505346 0.355745 0.385803 0.428068 0.480598 0.347151 0.374717 0.505346 0.530222 0.385803 0.397652 0.480598 0.500691 0.374717 0.38539 0.530222 0.507183 0.397652 0.385906 0.500691 0.48149 0.38539 0.374741 0.507183 0.445795 0.385906 0.355242 0.48149 0.429794 0.374741 0.346813 0.177856 0.19736 0.168313 0.185025 0.176773 0.19588 0.167397 0.183804 0.19736 0.220785 0.185025 0.203922 0.19588 0.218719 0.183804 0.202292 0.220785 0.248703 0.203922 0.225319 0.218719 0.245761 0.202292 0.223133 0.248703 0.281523 0.225319 0.248744 0.245761 0.277302 0.223133 0.245815 0.281523 0.318205 0.248744 0.272762 0.277302 0.312091 0.245815 0.268901 0.318205 0.355745 0.272762 0.295617 0.312091 0.347151 0.268901 0.290583 0.355745 0.385803 0.295617 0.312335 0.347151 0.374717 0.290583 0.306396 0.385803 0.397652 0.312335 0.318545 0.374717 0.38539 0.306396 0.31222 0.397652 0.385906 0.318545 0.311991 0.38539 0.374741 0.31222 0.30601 0.385906 0.355242 0.311991 0.293092 0.374741 0.346813 0.30601 0.288325 0.167396 0.183802 0.176772 0.195879 0.164733 0.180276 0.173634 0.191627 0.183802 0.20229 0.195879 0.218717 0.180276 0.19762 0.191627 0.21284 0.20229 0.223129 0.218717 0.245758 0.19762 0.216912 0.21284 0.237534 0.223129 0.245809 0.245758 0.277296 0.216912 0.237597 0.237534 0.265616 0.245809 0.268892 0.277296 0.312081 0.237597 0.25825 0.265616 0.295747 0.268892 0.290569 0.312081 0.347134 0.25825 0.276438 0.295747 0.323711 0.290569 0.306377 0.347134 0.374693 0.276438 0.29055 0.323711 0.347134 0.306377 0.312198 0.374693 0.385362 0.29055 0.295478 0.347134 0.35578 0.312198 0.305987 0.385362 0.374714 0.295478 0.289215 0.35578 0.346838 0.305987 0.288304 0.374714 0.346788 0.289215 0.275429 0.346838 0.325081 0.176772 0.195879 0.184916 0.207134 0.173634 0.191627 0.18133 0.202125 0.195879 0.218717 0.207134 0.234664 0.191627 0.21284 0.202125 0.22744 0.218717 0.245758 0.234664 0.269094 0.21284 0.237534 0.22744 0.258268 0.245758 0.277296 0.269094 0.311968 0.237534 0.265616 0.258268 0.295717 0.277296 0.312081 0.311968 0.365501 0.265616 0.295747 0.295717 0.339768 0.312081 0.347134 0.365501 0.42805 0.295747 0.323711 0.339768 0.386363 0.347134 0.374693 0.42805 0.480572 0.323711 0.347134 0.386363 0.428273 0.374693 0.385362 0.480572 0.500666 0.347134 0.35578 0.428273 0.445323 0.385362 0.374714 0.500666 0.481461 0.35578 0.346838 0.445323 0.428108 0.374714 0.346788 0.481461 0.429767 0.346838 0.325081 0.428108 0.388387 0.184916 0.207134 0.19143 0.216479 0.18133 0.202125 0.18746 0.21074 0.207134 0.234664 0.216479 0.248439 0.202125 0.22744 0.21074 0.239922 0.234664 0.269094 0.248439 0.290719 0.22744 0.258268 0.239922 0.276974 0.269094 0.311968 0.290719 0.347159 0.258268 0.295717 0.276974 0.323511 0.311968 0.365501 0.347159 0.428037 0.295717 0.339768 0.323511 0.38641 0.19143 0.216479 0.195688 0.222691 0.18746 0.21074 0.191434 0.216484 0.216479 0.248439 0.222691 0.258682 0.21074 0.239922 0.216484 0.248444 0.248439 0.290719 0.258682 0.305637 0.239922 0.276974 0.248444 0.29071 0.290719 0.347159 0.305637 0.373764 0.276974 0.323511 0.29071 0.347142 0.347159 0.428037 0.373764 0.481699 0.323511 0.38641 0.347142 0.428083 0.195688 0.222691 0.19716 0.224939 0.191434 0.216484 0.192818 0.218499 0.222691 0.258682 0.224939 0.261972 0.216484 0.248444 0.218499 0.251494 0.258682 0.305637 0.261972 0.311898 0.248444 0.29071 0.251494 0.295611 0.305637 0.373764 0.311898 0.38305 0.29071 0.347142 0.295611 0.355766 0.373764 0.481699 0.38305 0.503207 0.347142 0.428083 0.355766 0.444638 0.19716 0.224939 0.195689 0.222691 0.192818 0.218499 0.191434 0.216485 0.224939 0.261972 0.222691 0.258682 0.218499 0.251494 0.216485 0.248444 0.261972 0.311898 0.258682 0.305637 0.251494 0.295611 0.248444 0.290711 0.311898 0.38305 0.305637 0.373765 0.295611 0.355766 0.290711 0.347142 0.38305 0.503207 0.373765 0.481698 0.355766 0.444638 0.347142 0.428086 0.195689 0.222691 0.191431 0.21648 0.191434 0.216485 0.187461 0.210741 0.222691 0.258682 0.21648 0.248441 0.216485 0.248444 0.210741 0.239923 0.258682 0.305637 0.248441 0.290721 0.248444 0.290711 0.239923 0.276975 0.305637 0.373765 0.290721 0.347162 0.290711 0.347142 0.276975 0.323513 0.373765 0.481698 0.347162 0.428043 0.347142 0.428086 0.323513 0.386409 0.191431 0.21648 0.184917 0.207135 0.187461 0.210741 0.181331 0.202126 0.21648 0.248441 0.207135 0.234665 0.210741 0.239923 0.202126 0.227442 0.248441 0.290721 0.234665 0.269096 0.239923 0.276975 0.227442 0.25827 0.290721 0.347162 0.269096 0.311972 0.276975 0.323513 0.25827 0.29572 0.347162 0.428043 0.311972 0.36551 0.323513 0.386409 0.29572 0.339775 0.184917 0.207135 0.176773 0.19588 0.181331 0.202126 0.173635 0.191628 0.207135 0.234665 0.19588 0.218719 0.202126 0.227442 0.191628 0.212841 0.234665 0.269096 0.218719 0.245761 0.227442 0.25827 0.212841 0.237537 0.269096 0.311972 0.245761 0.277302 0.25827 0.29572 0.237537 0.265621 0.311972 0.36551 0.277302 0.312091 0.29572 0.339775 0.265621 0.295756 0.36551 0.428068 0.312091 0.347151 0.339775 0.38638 0.295756 0.323728 0.428068 0.480598 0.347151 0.374717 0.38638 0.428328 0.323728 0.34716 0.480598 0.500691 0.374717 0.38539 0.428328 0.445423 0.34716 0.355813 0.500691 0.48149 0.38539 0.374741 0.445423 0.428168 0.355813 0.346868 0.48149 0.429794 0.374741 0.346813 0.428168 0.38841 0.346868 0.325108 0.176773 0.19588 0.167397 0.183804 0.173635 0.191628 0.164734 0.180278 0.19588 0.218719 0.183804 0.202292 0.191628 0.212841 0.180278 0.197622 0.218719 0.245761 0.202292 0.223133 0.212841 0.237537 0.197622 0.216915 0.245761 0.277302 0.223133 0.245815 0.237537 0.265621 0.216915 0.237601 0.277302 0.312091 0.245815 0.268901 0.265621 0.295756 0.237601 0.258258 0.312091 0.347151 0.268901 0.290583 0.295756 0.323728 0.258258 0.276451 0.347151 0.374717 0.290583 0.306396 0.323728 0.34716 0.276451 0.290569 0.374717 0.38539 0.306396 0.31222 0.34716 0.355813 0.290569 0.295501 0.38539 0.374741 0.31222 0.30601 0.355813 0.346868 0.295501 0.289237 0.374741 0.346813 0.30601 0.288325 0.346868 0.325108 0.289237 0.275451 0.164733 0.180276 0.173634 0.191627 0.160553 0.174813 0.168745 0.185103 0.180276 0.19762 0.191627 0.21284 0.174813 0.190484 0.185103 0.204001 0.19762 0.216912 0.21284 0.237534 0.190484 0.207582 0.204001 0.22543 0.216912 0.237597 0.237534 0.265616 0.207582 0.225507 0.22543 0.249003 0.237597 0.25825 0.265616 0.295747 0.225507 0.242989 0.249003 0.273331 0.25825 0.276438 0.295747 0.323711 0.242989 0.258197 0.273331 0.295718 0.276438 0.29055 0.323711 0.347134 0.258197 0.268917 0.295718 0.311858 0.29055 0.295478 0.347134 0.35578 0.268917 0.272604 0.311858 0.318826 0.295478 0.289215 0.35578 0.346838 0.272604 0.268881 0.318826 0.311841 0.289215 0.275429 0.346838 0.325081 0.268881 0.257308 0.311841 0.29554 0.173634 0.191627 0.18133 0.202125 0.168745 0.185103 0.175783 0.194513 0.191627 0.21284 0.202125 0.22744 0.185103 0.204001 0.194513 0.216737 0.21284 0.237534 0.22744 0.258268 0.204001 0.22543 0.216737 0.242951 0.237534 0.265616 0.258268 0.295717 0.22543 0.249003 0.242951 0.273325 0.265616 0.295747 0.295717 0.339768 0.249003 0.273331 0.273325 0.306771 0.295747 0.323711 0.339768 0.386363 0.273331 0.295718 0.306771 0.339731 0.323711 0.347134 0.386363 0.428273 0.295718 0.311858 0.339731 0.365188 0.347134 0.35578 0.428273 0.445323 0.311858 0.318826 0.365188 0.376343 0.35578 0.346838 0.445323 0.428108 0.318826 0.311841 0.376343 0.36515 0.346838 0.325081 0.428108 0.388387 0.311841 0.29554 0.36515 0.340386 0.18133 0.202125 0.18746 0.21074 0.175783 0.194513 0.181348 0.202141 0.202125 0.22744 0.21074 0.239922 0.194513 0.216737 0.202141 0.227445 0.22744 0.258268 0.239922 0.276974 0.216737 0.242951 0.227445 0.258242 0.258268 0.295717 0.276974 0.323511 0.242951 0.273325 0.258242 0.295675 0.295717 0.339768 0.323511 0.38641 0.273325 0.306771 0.295675 0.339701 0.339768 0.386363 0.38641 0.458828 0.306771 0.339731 0.339701 0.386363 0.18746 0.21074 0.191434 0.216484 0.181348 0.202141 0.18494 0.207157 0.21074 0.239922 0.216484 0.248444 0.202141 0.227445 0.207157 0.234666 0.239922 0.276974 0.248444 0.29071 0.227445 0.258242 0.234666 0.269111 0.276974 0.323511 0.29071 0.347142 0.258242 0.295675 0.269111 0.31171 0.323511 0.38641 0.347142 0.428083 0.295675 0.339701 0.31171 0.365131 0.191434 0.216484 0.192818 0.218499 0.18494 0.207157 0.186183 0.20891 0.216484 0.248444 0.218499 0.251494 0.207157 0.234666 0.20891 0.237247 0.248444 0.29071 0.251494 0.295611 0.234666 0.269111 0.237247 0.272909 0.29071 0.347142 0.295611 0.355766 0.269111 0.31171 0.272909 0.318646 0.347142 0.428083 0.355766 0.444638 0.31171 0.365131 0.318646 0.376312 0.192818 0.218499 0.191434 0.216485 0.186183 0.20891 0.18494 0.207157 0.218499 0.251494 0.216485 0.248444 0.20891 0.237247 0.207157 0.234666 0.251494 0.295611 0.248444 0.290711 0.237247 0.272909 0.234666 0.269111 0.295611 0.355766 0.290711 0.347142 0.272909 0.318646 0.269111 0.31171 0.355766 0.444638 0.347142 0.428086 0.318646 0.376312 0.31171 0.365106 0.191434 0.216485 0.187461 0.210741 0.18494 0.207157 0.181349 0.202141 0.216485 0.248444 0.210741 0.239923 0.207157 0.234666 0.202141 0.227445 0.248444 0.290711 0.239923 0.276975 0.234666 0.269111 0.227445 0.258242 0.290711 0.347142 0.276975 0.323513 0.269111 0.31171 0.258242 0.295673 0.347142 0.428086 0.323513 0.386409 0.31171 0.365106 0.295673 0.339703 0.187461 0.210741 0.181331 0.202126 0.181349 0.202141 0.175783 0.194514 0.210741 0.239923 0.202126 0.227442 0.202141 0.227445 0.194514 0.216738 0.239923 0.276975 0.227442 0.25827 0.227445 0.258242 0.216738 0.242953 0.276975 0.323513 0.25827 0.29572 0.258242 0.295673 0.242953 0.273327 0.323513 0.386409 0.29572 0.339775 0.295673 0.339703 0.273327 0.30677 0.386409 0.458849 0.339775 0.38638 0.339703 0.386287 0.30677 0.339754 0.181331 0.202126 0.173635 0.191628 0.175783 0.194514 0.168745 0.185104 0.202126 0.227442 0.191628 0.212841 0.194514 0.216738 0.185104 0.204003 0.227442 0.25827 0.212841 0.237537 0.216738 0.242953 0.204003 0.225432 0.25827 0.29572 0.237537 0.265621 0.242953 0.273327 0.225432 0.249006 0.29572 0.339775 0.265621 0.295756 0.273327 0.30677 0.249006 0.273339 0.339775 0.38638 0.295756 0.323728 0.30677 0.339754 0.273339 0.295731 0.38638 0.428328 0.323728 0.34716 0.339754 0.365222 0.295731 0.311879 0.428328 0.445423 0.34716 0.355813 0.365222 0.376308 0.311879 0.318849 0.445423 0.428168 0.355813 0.346868 0.376308 0.365177 0.318849 0.311867 0.428168 0.38841 0.346868 0.325108 0.365177 0.340438 0.311867 0.295562 0.173635 0.191628 0.164734 0.180278 0.168745 0.185104 0.160554 0.174814 0.191628 0.212841 0.180278 0.197622 0.185104 0.204003 0.174814 0.190486 0.212841 0.237537 0.197622 0.216915 0.204003 0.225432 0.190486 0.207584 0.237537 0.265621 0.216915 0.237601 0.225432 0.249006 0.207584 0.225511 0.265621 0.295756 0.237601 0.258258 0.249006 0.273339 0.225511 0.242996 0.295756 0.323728 0.258258 0.276451 0.273339 0.295731 0.242996 0.258209 0.323728 0.34716 0.276451 0.290569 0.295731 0.311879 0.258209 0.268933 0.34716 0.355813 0.290569 0.295501 0.311879 0.318849 0.268933 0.272624 0.355813 0.346868 0.295501 0.289237 0.318849 0.311867 0.272624 0.2689 0.346868 0.325108 0.289237 0.275451 0.311867 0.295562 0.2689 0.257327 0.160553 0.174813 0.168745 0.185103 0.155183 0.167915 0.162525 0.176972 0.174813 0.190484 0.185103 0.204001 0.167915 0.181648 0.176972 0.193259 0.190484 0.207582 0.204001 0.22543 0.181648 0.196286 0.193259 0.211171 0.207582 0.225507 0.22543 0.249003 0.196286 0.211238 0.211171 0.230154 0.225507 0.242989 0.249003 0.273331 0.211238 0.225474 0.230154 0.248976 0.242989 0.258197 0.273331 0.295718 0.225474 0.237529 0.248976 0.265533 0.258197 0.268917 0.295718 0.311858 0.237529 0.245722 0.265533 0.277222 0.268917 0.272604 0.311858 0.318826 0.245722 0.24867 0.277222 0.281424 0.272604 0.268881 0.318826 0.311841 0.24867 0.245589 0.281424 0.277084 0.268881 0.257308 0.311841 0.29554 0.245589 0.236808 0.277084 0.26537 0.168745 0.185103 0.175783 0.194513 0.162525 0.176972 0.168789 0.185144 0.185103 0.204001 0.194513 0.216737 0.176972 0.193259 0.185144 0.203991 0.204001 0.22543 0.216737 0.242951 0.193259 0.211171 0.203991 0.225395 0.22543 0.249003 0.242951 0.273325 0.211171 0.230154 0.225395 0.248958 0.249003 0.273331 0.273325 0.306771 0.230154 0.248976 0.248958 0.273294 0.273331 0.295718 0.306771 0.339731 0.248976 0.265533 0.273294 0.295638 0.295718 0.311858 0.339731 0.365188 0.265533 0.277222 0.295638 0.311661 0.311858 0.318826 0.365188 0.376343 0.277222 0.281424 0.311661 0.318636 0.318826 0.311841 0.376343 0.36515 0.281424 0.277084 0.318636 0.311708 0.311841 0.29554 0.36515 0.340386 0.277084 0.26537 0.311708 0.295387 0.175783 0.194513 0.181348 0.202141 0.168789 0.185144 0.173702 0.191689 0.194513 0.216737 0.202141 0.227445 0.185144 0.203991 0.191689 0.212833 0.216737 0.242951 0.227445 0.258242 0.203991 0.225395 0.212833 0.237485 0.242951 0.273325 0.258242 0.295675 0.225395 0.248958 0.237485 0.265521 0.273325 0.306771 0.295675 0.339701 0.248958 0.273294 0.265521 0.295628 0.306771 0.339731 0.339701 0.386363 0.273294 0.295638 0.295628 0.323399 0.339731 0.365188 0.386363 0.427898 0.295638 0.311661 0.323399 0.346986 0.365188 0.376343 0.427898 0.444235 0.311661 0.318636 0.346986 0.355639 0.376343 0.36515 0.444235 0.428106 0.318636 0.311708 0.355639 0.347056 0.36515 0.340386 0.428106 0.388373 0.311708 0.295387 0.347056 0.324556 0.181348 0.202141 0.18494 0.207157 0.173702 0.191689 0.17685 0.195953 0.202141 0.227445 0.207157 0.234666 0.191689 0.212833 0.195953 0.218718 0.227445 0.258242 0.234666 0.269111 0.212833 0.237485 0.218718 0.245715 0.258242 0.295675 0.269111 0.31171 0.237485 0.265521 0.245715 0.277234 0.295675 0.339701 0.31171 0.365131 0.265521 0.295628 0.277234 0.311651 0.339701 0.386363 0.365131 0.427855 0.295628 0.323399 0.311651 0.346972 0.386363 0.427898 0.427855 0.482077 0.323399 0.346986 0.346972 0.374719 0.427898 0.444235 0.482077 0.50527 0.346986 0.355639 0.374719 0.385625 0.444235 0.428106 0.50527 0.48074 0.355639 0.347056 0.385625 0.374554 0.428106 0.388373 0.48074 0.429985 0.347056 0.324556 0.374554 0.346713 0.18494 0.207157 0.186183 0.20891 0.17685 0.195953 0.177935 0.197438 0.207157 0.234666 0.20891 0.237247 0.195953 0.218718 0.197438 0.220783 0.234666 0.269111 0.237247 0.272909 0.218718 0.245715 0.220783 0.248687 0.269111 0.31171 0.272909 0.318646 0.245715 0.277234 0.248687 0.281475 0.31171 0.365131 0.318646 0.376312 0.277234 0.311651 0.281475 0.318582 0.365131 0.427855 0.376312 0.444046 0.311651 0.346972 0.318582 0.355611 0.427855 0.482077 0.444046 0.505113 0.346972 0.374719 0.355611 0.385584 0.482077 0.50527 0.505113 0.529905 0.374719 0.385625 0.385584 0.397454 0.50527 0.48074 0.529905 0.500338 0.385625 0.374554 0.397454 0.385157 0.48074 0.429985 0.500338 0.448552 0.374554 0.346713 0.385157 0.355099 0.186183 0.20891 0.18494 0.207157 0.177935 0.197438 0.17685 0.195953 0.20891 0.237247 0.207157 0.234666 0.197438 0.220783 0.195953 0.218718 0.237247 0.272909 0.234666 0.269111 0.220783 0.248687 0.218718 0.245715 0.272909 0.318646 0.269111 0.31171 0.248687 0.281475 0.245715 0.277231 0.318646 0.376312 0.31171 0.365106 0.281475 0.318582 0.277231 0.311646 0.376312 0.444046 0.365106 0.42799 0.318582 0.355611 0.311646 0.346932 0.444046 0.505113 0.42799 0.480491 0.355611 0.385584 0.346932 0.374485 0.505113 0.529905 0.480491 0.500709 0.385584 0.397454 0.374485 0.385172 0.529905 0.500338 0.500709 0.47883 0.397454 0.385157 0.385172 0.374293 0.500338 0.448552 0.47883 0.430421 0.385157 0.355099 0.374293 0.346641 0.18494 0.207157 0.181349 0.202141 0.17685 0.195953 0.173702 0.19169 0.207157 0.234666 0.202141 0.227445 0.195953 0.218718 0.19169 0.212834 0.234666 0.269111 0.227445 0.258242 0.218718 0.245715 0.212834 0.237485 0.269111 0.31171 0.258242 0.295673 0.245715 0.277231 0.237485 0.265519 0.31171 0.365106 0.295673 0.339703 0.277231 0.311646 0.265519 0.295619 0.365106 0.42799 0.339703 0.386287 0.311646 0.346932 0.295619 0.323388 0.42799 0.480491 0.386287 0.428215 0.346932 0.374485 0.323388 0.346954 0.480491 0.500709 0.428215 0.445296 0.374485 0.385172 0.346954 0.355608 0.500709 0.47883 0.445296 0.428511 0.385172 0.374293 0.355608 0.347021 0.47883 0.430421 0.428511 0.388155 0.374293 0.346641 0.347021 0.324498 0.181349 0.202141 0.175783 0.194514 0.173702 0.19169 0.16879 0.185145 0.202141 0.227445 0.194514 0.216738 0.19169 0.212834 0.185145 0.203992 0.227445 0.258242 0.21