<?xml version="1.0" ?> 
<!-- 
# vtk DataFile Version 3.0
#This file was generated by the deal.II library on 16:47:39 at 2019/11/27
-->
<VTKFile type="UnstructuredGrid" version="0.1" byte_order="LittleEndian">
<UnstructuredGrid>
<Piece NumberOfPoints="73688" NumberOfCells="9211" >
  <Points>
    <DataArray type="Float32" NumberOfComponents="3" format="ascii">
-50 -50 0
-40 -50 0
-50 -40 0
-40 -40 0
-50 -50 10
-40 -50 10
-50 -40 10
-40 -40 10
-40 -50 0
-30 -50 0
-40 -40 0
-30 -40 0
-40 -50 10
-30 -50 10
-40 -40 10
-30 -40 10
-30 -50 0
-20 -50 0
-30 -40 0
-20 -40 0
-30 -50 10
-20 -50 10
-30 -40 10
-20 -40 10
-20 -50 0
-10 -50 0
-20 -40 0
-10 -40 0
-20 -50 10
-10 -50 10
-20 -40 10
-10 -40 10
-10 -50 0
0 -50 0
-10 -40 0
0 -40 0
-10 -50 10
0 -50 10
-10 -40 10
0 -40 10
0 -50 0
10 -50 0
0 -40 0
10 -40 0
0 -50 10
10 -50 10
0 -40 10
10 -40 10
10 -50 0
20 -50 0
10 -40 0
20 -40 0
10 -50 10
20 -50 10
10 -40 10
20 -40 10
20 -50 0
30 -50 0
20 -40 0
30 -40 0
20 -50 10
30 -50 10
20 -40 10
30 -40 10
30 -50 0
40 -50 0
30 -40 0
40 -40 0
30 -50 10
40 -50 10
30 -40 10
40 -40 10
40 -50 0
50 -50 0
40 -40 0
50 -40 0
40 -50 10
50 -50 10
40 -40 10
50 -40 10
-50 -40 0
-40 -40 0
-50 -30 0
-40 -30 0
-50 -40 10
-40 -40 10
-50 -30 10
-40 -30 10
-40 -40 0
-30 -40 0
-40 -30 0
-30 -30 0
-40 -40 10
-30 -40 10
-40 -30 10
-30 -30 10
-30 -40 0
-20 -40 0
-30 -30 0
-20 -30 0
-30 -40 10
-20 -40 10
-30 -30 10
-20 -30 10
-20 -40 0
-10 -40 0
-20 -30 0
-10 -30 0
-20 -40 10
-10 -40 10
-20 -30 10
-10 -30 10
-10 -40 0
0 -40 0
-10 -30 0
0 -30 0
-10 -40 10
0 -40 10
-10 -30 10
0 -30 10
0 -40 0
10 -40 0
0 -30 0
10 -30 0
0 -40 10
10 -40 10
0 -30 10
10 -30 10
10 -40 0
20 -40 0
10 -30 0
20 -30 0
10 -40 10
20 -40 10
10 -30 10
20 -30 10
20 -40 0
30 -40 0
20 -30 0
30 -30 0
20 -40 10
30 -40 10
20 -30 10
30 -30 10
30 -40 0
40 -40 0
30 -30 0
40 -30 0
30 -40 10
40 -40 10
30 -30 10
40 -30 10
40 -40 0
50 -40 0
40 -30 0
50 -30 0
40 -40 10
50 -40 10
40 -30 10
50 -30 10
-50 -30 0
-40 -30 0
-50 -20 0
-40 -20 0
-50 -30 10
-40 -30 10
-50 -20 10
-40 -20 10
-40 -30 0
-30 -30 0
-40 -20 0
-30 -20 0
-40 -30 10
-30 -30 10
-40 -20 10
-30 -20 10
-30 -30 0
-20 -30 0
-30 -20 0
-20 -20 0
-30 -30 10
-20 -30 10
-30 -20 10
-20 -20 10
-20 -30 0
-10 -30 0
-20 -20 0
-10 -20 0
-20 -30 10
-10 -30 10
-20 -20 10
-10 -20 10
-10 -30 0
0 -30 0
-10 -20 0
0 -20 0
-10 -30 10
0 -30 10
-10 -20 10
0 -20 10
40 -30 0
50 -30 0
40 -20 0
50 -20 0
40 -30 10
50 -30 10
40 -20 10
50 -20 10
-50 -20 0
-40 -20 0
-50 -10 0
-40 -10 0
-50 -20 10
-40 -20 10
-50 -10 10
-40 -10 10
-40 -20 0
-30 -20 0
-40 -10 0
-30 -10 0
-40 -20 10
-30 -20 10
-40 -10 10
-30 -10 10
-30 -20 0
-20 -20 0
-30 -10 0
-20 -10 0
-30 -20 10
-20 -20 10
-30 -10 10
-20 -10 10
-50 -10 0
-40 -10 0
-50 0 0
-40 0 0
-50 -10 10
-40 -10 10
-50 0 10
-40 0 10
-40 -10 0
-30 -10 0
-40 0 0
-30 0 0
-40 -10 10
-30 -10 10
-40 0 10
-30 0 10
-50 0 0
-40 0 0
-50 10 0
-40 10 0
-50 0 10
-40 0 10
-50 10 10
-40 10 10
-40 0 0
-30 0 0
-40 10 0
-30 10 0
-40 0 10
-30 0 10
-40 10 10
-30 10 10
-50 10 0
-40 10 0
-50 20 0
-40 20 0
-50 10 10
-40 10 10
-50 20 10
-40 20 10
-40 10 0
-30 10 0
-40 20 0
-30 20 0
-40 10 10
-30 10 10
-40 20 10
-30 20 10
-30 10 0
-20 10 0
-30 20 0
-20 20 0
-30 10 10
-20 10 10
-30 20 10
-20 20 10
-20 10 0
-10 10 0
-20 20 0
-10 20 0
-20 10 10
-10 10 10
-20 20 10
-10 20 10
-50 20 0
-40 20 0
-50 30 0
-40 30 0
-50 20 10
-40 20 10
-50 30 10
-40 30 10
-40 20 0
-30 20 0
-40 30 0
-30 30 0
-40 20 10
-30 20 10
-40 30 10
-30 30 10
-30 20 0
-20 20 0
-30 30 0
-20 30 0
-30 20 10
-20 20 10
-30 30 10
-20 30 10
-20 20 0
-10 20 0
-20 30 0
-10 30 0
-20 20 10
-10 20 10
-20 30 10
-10 30 10
-10 20 0
0 20 0
-10 30 0
0 30 0
-10 20 10
0 20 10
-10 30 10
0 30 10
40 20 0
50 20 0
40 30 0
50 30 0
40 20 10
50 20 10
40 30 10
50 30 10
-50 30 0
-40 30 0
-50 40 0
-40 40 0
-50 30 10
-40 30 10
-50 40 10
-40 40 10
-40 30 0
-30 30 0
-40 40 0
-30 40 0
-40 30 10
-30 30 10
-40 40 10
-30 40 10
-30 30 0
-20 30 0
-30 40 0
-20 40 0
-30 30 10
-20 30 10
-30 40 10
-20 40 10
-20 30 0
-10 30 0
-20 40 0
-10 40 0
-20 30 10
-10 30 10
-20 40 10
-10 40 10
-10 30 0
0 30 0
-10 40 0
0 40 0
-10 30 10
0 30 10
-10 40 10
0 40 10
0 30 0
10 30 0
0 40 0
10 40 0
0 30 10
10 30 10
0 40 10
10 40 10
10 30 0
20 30 0
10 40 0
20 40 0
10 30 10
20 30 10
10 40 10
20 40 10
20 30 0
30 30 0
20 40 0
30 40 0
20 30 10
30 30 10
20 40 10
30 40 10
30 30 0
40 30 0
30 40 0
40 40 0
30 30 10
40 30 10
30 40 10
40 40 10
40 30 0
50 30 0
40 40 0
50 40 0
40 30 10
50 30 10
40 40 10
50 40 10
-50 40 0
-40 40 0
-50 50 0
-40 50 0
-50 40 10
-40 40 10
-50 50 10
-40 50 10
-40 40 0
-30 40 0
-40 50 0
-30 50 0
-40 40 10
-30 40 10
-40 50 10
-30 50 10
-30 40 0
-20 40 0
-30 50 0
-20 50 0
-30 40 10
-20 40 10
-30 50 10
-20 50 10
-20 40 0
-10 40 0
-20 50 0
-10 50 0
-20 40 10
-10 40 10
-20 50 10
-10 50 10
-10 40 0
0 40 0
-10 50 0
0 50 0
-10 40 10
0 40 10
-10 50 10
0 50 10
0 40 0
10 40 0
0 50 0
10 50 0
0 40 10
10 40 10
0 50 10
10 50 10
10 40 0
20 40 0
10 50 0
20 50 0
10 40 10
20 40 10
10 50 10
20 50 10
20 40 0
30 40 0
20 50 0
30 50 0
20 40 10
30 40 10
20 50 10
30 50 10
30 40 0
40 40 0
30 50 0
40 50 0
30 40 10
40 40 10
30 50 10
40 50 10
40 40 0
50 40 0
40 50 0
50 50 0
40 40 10
50 40 10
40 50 10
50 50 10
-50 -50 10
-40 -50 10
-50 -40 10
-40 -40 10
-50 -50 20
-40 -50 20
-50 -40 20
-40 -40 20
-40 -50 10
-30 -50 10
-40 -40 10
-30 -40 10
-40 -50 20
-30 -50 20
-40 -40 20
-30 -40 20
-30 -50 10
-20 -50 10
-30 -40 10
-20 -40 10
-30 -50 20
-20 -50 20
-30 -40 20
-20 -40 20
-20 -50 10
-10 -50 10
-20 -40 10
-10 -40 10
-20 -50 20
-10 -50 20
-20 -40 20
-10 -40 20
-10 -50 10
0 -50 10
-10 -40 10
0 -40 10
-10 -50 20
0 -50 20
-10 -40 20
0 -40 20
0 -50 10
10 -50 10
0 -40 10
10 -40 10
0 -50 20
10 -50 20
0 -40 20
10 -40 20
10 -50 10
20 -50 10
10 -40 10
20 -40 10
10 -50 20
20 -50 20
10 -40 20
20 -40 20
20 -50 10
30 -50 10
20 -40 10
30 -40 10
20 -50 20
30 -50 20
20 -40 20
30 -40 20
30 -50 10
40 -50 10
30 -40 10
40 -40 10
30 -50 20
40 -50 20
30 -40 20
40 -40 20
40 -50 10
50 -50 10
40 -40 10
50 -40 10
40 -50 20
50 -50 20
40 -40 20
50 -40 20
-50 -40 10
-40 -40 10
-50 -30 10
-40 -30 10
-50 -40 20
-40 -40 20
-50 -30 20
-40 -30 20
-40 -40 10
-30 -40 10
-40 -30 10
-30 -30 10
-40 -40 20
-30 -40 20
-40 -30 20
-30 -30 20
-30 -40 10
-20 -40 10
-30 -30 10
-20 -30 10
-30 -40 20
-20 -40 20
-30 -30 20
-20 -30 20
-20 -40 10
-10 -40 10
-20 -30 10
-10 -30 10
-20 -40 20
-10 -40 20
-20 -30 20
-10 -30 20
-10 -40 10
0 -40 10
-10 -30 10
0 -30 10
-10 -40 20
0 -40 20
-10 -30 20
0 -30 20
0 -40 10
10 -40 10
0 -30 10
10 -30 10
0 -40 20
10 -40 20
0 -30 20
10 -30 20
10 -40 10
20 -40 10
10 -30 10
20 -30 10
10 -40 20
20 -40 20
10 -30 20
20 -30 20
20 -40 10
30 -40 10
20 -30 10
30 -30 10
20 -40 20
30 -40 20
20 -30 20
30 -30 20
30 -40 10
40 -40 10
30 -30 10
40 -30 10
30 -40 20
40 -40 20
30 -30 20
40 -30 20
40 -40 10
50 -40 10
40 -30 10
50 -30 10
40 -40 20
50 -40 20
40 -30 20
50 -30 20
-50 -30 10
-40 -30 10
-50 -20 10
-40 -20 10
-50 -30 20
-40 -30 20
-50 -20 20
-40 -20 20
-40 -30 10
-30 -30 10
-40 -20 10
-30 -20 10
-40 -30 20
-30 -30 20
-40 -20 20
-30 -20 20
-30 -30 10
-20 -30 10
-30 -20 10
-20 -20 10
-30 -30 20
-20 -30 20
-30 -20 20
-20 -20 20
-20 -30 10
-10 -30 10
-20 -20 10
-10 -20 10
-20 -30 20
-10 -30 20
-20 -20 20
-10 -20 20
-10 -30 10
0 -30 10
-10 -20 10
0 -20 10
-10 -30 20
0 -30 20
-10 -20 20
0 -20 20
40 -30 10
50 -30 10
40 -20 10
50 -20 10
40 -30 20
50 -30 20
40 -20 20
50 -20 20
-50 -20 10
-40 -20 10
-50 -10 10
-40 -10 10
-50 -20 20
-40 -20 20
-50 -10 20
-40 -10 20
-40 -20 10
-30 -20 10
-40 -10 10
-30 -10 10
-40 -20 20
-30 -20 20
-40 -10 20
-30 -10 20
-30 -20 10
-20 -20 10
-30 -10 10
-20 -10 10
-30 -20 20
-20 -20 20
-30 -10 20
-20 -10 20
-20 -20 10
-10 -20 10
-20 -10 10
-10 -10 10
-20 -20 20
-10 -20 20
-20 -10 20
-10 -10 20
-50 -10 10
-40 -10 10
-50 0 10
-40 0 10
-50 -10 20
-40 -10 20
-50 0 20
-40 0 20
-40 -10 10
-30 -10 10
-40 0 10
-30 0 10
-40 -10 20
-30 -10 20
-40 0 20
-30 0 20
-30 -10 10
-20 -10 10
-30 0 10
-20 0 10
-30 -10 20
-20 -10 20
-30 0 20
-20 0 20
-50 0 10
-40 0 10
-50 10 10
-40 10 10
-50 0 20
-40 0 20
-50 10 20
-40 10 20
-40 0 10
-30 0 10
-40 10 10
-30 10 10
-40 0 20
-30 0 20
-40 10 20
-30 10 20
-30 0 10
-20 0 10
-30 10 10
-20 10 10
-30 0 20
-20 0 20
-30 10 20
-20 10 20
-20 0 10
-10 0 10
-20 10 10
-10 10 10
-20 0 20
-10 0 20
-20 10 20
-10 10 20
-50 10 10
-40 10 10
-50 20 10
-40 20 10
-50 10 20
-40 10 20
-50 20 20
-40 20 20
-40 10 10
-30 10 10
-40 20 10
-30 20 10
-40 10 20
-30 10 20
-40 20 20
-30 20 20
-30 10 10
-20 10 10
-30 20 10
-20 20 10
-30 10 20
-20 10 20
-30 20 20
-20 20 20
-20 10 10
-10 10 10
-20 20 10
-10 20 10
-20 10 20
-10 10 20
-20 20 20
-10 20 20
-50 20 10
-40 20 10
-50 30 10
-40 30 10
-50 20 20
-40 20 20
-50 30 20
-40 30 20
-40 20 10
-30 20 10
-40 30 10
-30 30 10
-40 20 20
-30 20 20
-40 30 20
-30 30 20
-30 20 10
-20 20 10
-30 30 10
-20 30 10
-30 20 20
-20 20 20
-30 30 20
-20 30 20
-20 20 10
-10 20 10
-20 30 10
-10 30 10
-20 20 20
-10 20 20
-20 30 20
-10 30 20
-10 20 10
0 20 10
-10 30 10
0 30 10
-10 20 20
0 20 20
-10 30 20
0 30 20
40 20 10
50 20 10
40 30 10
50 30 10
40 20 20
50 20 20
40 30 20
50 30 20
-50 30 10
-40 30 10
-50 40 10
-40 40 10
-50 30 20
-40 30 20
-50 40 20
-40 40 20
-40 30 10
-30 30 10
-40 40 10
-30 40 10
-40 30 20
-30 30 20
-40 40 20
-30 40 20
-30 30 10
-20 30 10
-30 40 10
-20 40 10
-30 30 20
-20 30 20
-30 40 20
-20 40 20
-20 30 10
-10 30 10
-20 40 10
-10 40 10
-20 30 20
-10 30 20
-20 40 20
-10 40 20
-10 30 10
0 30 10
-10 40 10
0 40 10
-10 30 20
0 30 20
-10 40 20
0 40 20
0 30 10
10 30 10
0 40 10
10 40 10
0 30 20
10 30 20
0 40 20
10 40 20
10 30 10
20 30 10
10 40 10
20 40 10
10 30 20
20 30 20
10 40 20
20 40 20
20 30 10
30 30 10
20 40 10
30 40 10
20 30 20
30 30 20
20 40 20
30 40 20
30 30 10
40 30 10
30 40 10
40 40 10
30 30 20
40 30 20
30 40 20
40 40 20
40 30 10
50 30 10
40 40 10
50 40 10
40 30 20
50 30 20
40 40 20
50 40 20
-50 40 10
-40 40 10
-50 50 10
-40 50 10
-50 40 20
-40 40 20
-50 50 20
-40 50 20
-40 40 10
-30 40 10
-40 50 10
-30 50 10
-40 40 20
-30 40 20
-40 50 20
-30 50 20
-30 40 10
-20 40 10
-30 50 10
-20 50 10
-30 40 20
-20 40 20
-30 50 20
-20 50 20
-20 40 10
-10 40 10
-20 50 10
[...]
  <PointData Scalars="scalars">
    <DataArray type="Float32" Name="u" format="ascii">
0.184587 0.203888 0.197412 0.220762 0.18338 0.20226 0.195932 0.21869 0.203888 0.225337 0.220762 0.248722 0.20226 0.223138 0.21869 0.245799 0.225337 0.248817 0.248722 0.281599 0.223138 0.24588 0.245799 0.277322 0.248817 0.273105 0.281599 0.318321 0.24588 0.269211 0.277322 0.312227 0.273105 0.295006 0.318321 0.356341 0.269211 0.290004 0.312227 0.347689 0.295006 0.312569 0.356341 0.386059 0.290004 0.306558 0.347689 0.375175 0.312569 0.318866 0.386059 0.39793 0.306558 0.312567 0.375175 0.386034 0.318866 0.312526 0.39793 0.386021 0.312567 0.306414 0.386034 0.375096 0.312526 0.295352 0.386021 0.355717 0.306414 0.289333 0.375096 0.346887 0.295352 0.270834 0.355717 0.317995 0.289333 0.267319 0.346887 0.312056 0.197412 0.220762 0.208934 0.237279 0.195932 0.21869 0.207182 0.234709 0.220762 0.248722 0.237279 0.273146 0.21869 0.245799 0.234709 0.269091 0.248722 0.281599 0.273146 0.318115 0.245799 0.277322 0.269091 0.312129 0.281599 0.318321 0.318115 0.375342 0.277322 0.312227 0.312129 0.365138 0.318321 0.356341 0.375342 0.441404 0.312227 0.347689 0.365138 0.425108 0.356341 0.386059 0.441404 0.503343 0.347689 0.375175 0.425108 0.481148 0.386059 0.39793 0.503343 0.530569 0.375175 0.386034 0.481148 0.503437 0.39793 0.386021 0.530569 0.503503 0.386034 0.375096 0.503437 0.481248 0.386021 0.355717 0.503503 0.441839 0.375096 0.346887 0.481248 0.425716 0.355717 0.317995 0.441839 0.375467 0.346887 0.312056 0.425716 0.365126 0.208934 0.237279 0.218562 0.251584 0.207182 0.234709 0.216478 0.248509 0.237279 0.273146 0.251584 0.296055 0.234709 0.269091 0.248509 0.290551 0.273146 0.318115 0.296055 0.355699 0.269091 0.312129 0.290551 0.346804 0.318115 0.375342 0.355699 0.441357 0.312129 0.365138 0.346804 0.424847 0.375342 0.441404 0.441357 0.566042 0.365138 0.425108 0.424847 0.530571 0.441839 0.375467 0.566718 0.444022 0.425716 0.365126 0.530206 0.425281 0.218562 0.251584 0.224902 0.262467 0.216478 0.248509 0.222879 0.257934 0.251584 0.296055 0.262467 0.312149 0.248509 0.290551 0.257934 0.305929 0.296055 0.355699 0.312149 0.385293 0.290551 0.346804 0.305929 0.375546 0.224902 0.262467 0.227476 0.26549 0.222879 0.257934 0.224891 0.262462 0.262467 0.312149 0.26549 0.320434 0.257934 0.305929 0.262462 0.31223 0.227476 0.26549 0.22489 0.262455 0.224891 0.262462 0.222871 0.257915 0.26549 0.320434 0.262455 0.312179 0.262462 0.31223 0.257915 0.305956 0.22489 0.262455 0.218548 0.251554 0.222871 0.257915 0.216463 0.248491 0.262455 0.312179 0.251554 0.295998 0.257915 0.305956 0.248491 0.290475 0.312179 0.383563 0.295998 0.355696 0.305956 0.374071 0.290475 0.346813 0.383563 0.502215 0.355696 0.441362 0.374071 0.481405 0.346813 0.42512 0.218548 0.251554 0.208919 0.23726 0.216463 0.248491 0.207169 0.234691 0.251554 0.295998 0.23726 0.273129 0.248491 0.290475 0.234691 0.269081 0.295998 0.355696 0.273129 0.318121 0.290475 0.346813 0.269081 0.312123 0.355696 0.441362 0.318121 0.375341 0.346813 0.42512 0.312123 0.365146 0.441362 0.565979 0.375341 0.441384 0.42512 0.530611 0.365146 0.425106 0.566729 0.444029 0.44184 0.37547 0.530227 0.425288 0.425718 0.365129 0.208919 0.23726 0.197402 0.220752 0.207169 0.234691 0.195922 0.218681 0.23726 0.273129 0.220752 0.248715 0.234691 0.269081 0.218681 0.245791 0.273129 0.318121 0.248715 0.281594 0.269081 0.312123 0.245791 0.277319 0.318121 0.375341 0.281594 0.318319 0.312123 0.365146 0.277319 0.312224 0.375341 0.441384 0.318319 0.356332 0.365146 0.425106 0.312224 0.347683 0.441384 0.503301 0.356332 0.386042 0.425106 0.481132 0.347683 0.375162 0.503301 0.530552 0.386042 0.397911 0.481132 0.5034 0.375162 0.386016 0.530552 0.503501 0.397911 0.386008 0.5034 0.481234 0.386016 0.375084 0.503501 0.44184 0.386008 0.355712 0.481234 0.425718 0.375084 0.346883 0.44184 0.37547 0.355712 0.317993 0.425718 0.365129 0.346883 0.312055 0.197402 0.220752 0.184578 0.20388 0.195922 0.218681 0.183372 0.202252 0.220752 0.248715 0.20388 0.225331 0.218681 0.245791 0.202252 0.223132 0.248715 0.281594 0.225331 0.248813 0.245791 0.277319 0.223132 0.245876 0.281594 0.318319 0.248813 0.273101 0.277319 0.312224 0.245876 0.269208 0.318319 0.356332 0.273101 0.294999 0.312224 0.347683 0.269208 0.289998 0.356332 0.386042 0.294999 0.312558 0.347683 0.375162 0.289998 0.306548 0.386042 0.397911 0.312558 0.318854 0.375162 0.386016 0.306548 0.312556 0.397911 0.386008 0.318854 0.312516 0.386016 0.375084 0.312556 0.306405 0.386008 0.355712 0.312516 0.295346 0.375084 0.346883 0.306405 0.289327 0.355712 0.317993 0.295346 0.270831 0.346883 0.312055 0.289327 0.267316 0.18338 0.20226 0.195932 0.21869 0.179896 0.197588 0.19168 0.212816 0.20226 0.223138 0.21869 0.245799 0.197588 0.216913 0.212816 0.237542 0.223138 0.24588 0.245799 0.277322 0.216913 0.237636 0.237542 0.26562 0.24588 0.269211 0.277322 0.312227 0.237636 0.25841 0.26562 0.295789 0.269211 0.290004 0.312227 0.347689 0.25841 0.277085 0.295789 0.324462 0.290004 0.306558 0.347689 0.375175 0.277085 0.289497 0.324462 0.347087 0.306558 0.312567 0.375175 0.386034 0.289497 0.295581 0.347087 0.355788 0.312567 0.306414 0.386034 0.375096 0.295581 0.289387 0.355788 0.34705 0.306414 0.289333 0.375096 0.346887 0.289387 0.27678 0.34705 0.324291 0.289333 0.267319 0.346887 0.312056 0.27678 0.256879 0.324291 0.295532 0.195932 0.21869 0.207182 0.234709 0.19168 0.212816 0.20217 0.227465 0.21869 0.245799 0.234709 0.269091 0.212816 0.237542 0.227465 0.258366 0.245799 0.277322 0.269091 0.312129 0.237542 0.26562 0.258366 0.295705 0.277322 0.312227 0.312129 0.365138 0.26562 0.295789 0.295705 0.339214 0.312227 0.347689 0.365138 0.425108 0.295789 0.324462 0.339214 0.385617 0.347689 0.375175 0.425108 0.481148 0.324462 0.347087 0.385617 0.425638 0.375175 0.386034 0.481148 0.503437 0.347087 0.355788 0.425638 0.441432 0.386034 0.375096 0.503437 0.481248 0.355788 0.34705 0.441432 0.425736 0.375096 0.346887 0.481248 0.425716 0.34705 0.324291 0.425736 0.385956 0.346887 0.312056 0.425716 0.365126 0.324291 0.295532 0.385956 0.339047 0.207182 0.234709 0.216478 0.248509 0.20217 0.227465 0.210757 0.239916 0.234709 0.269091 0.248509 0.290551 0.227465 0.258366 0.239916 0.277041 0.269091 0.312129 0.290551 0.346804 0.258366 0.295705 0.277041 0.324764 0.312129 0.365138 0.346804 0.424847 0.295705 0.339214 0.324764 0.384192 0.365138 0.425108 0.424847 0.530571 0.339214 0.385617 0.384192 0.459939 0.425716 0.365126 0.530206 0.425281 0.385956 0.339047 0.460494 0.387534 0.216478 0.248509 0.222879 0.257934 0.210757 0.239916 0.216469 0.248502 0.248509 0.290551 0.257934 0.305929 0.239916 0.277041 0.248502 0.290524 0.290551 0.346804 0.305929 0.375546 0.277041 0.324764 0.290524 0.34679 0.346804 0.424847 0.375546 0.479568 0.324764 0.384192 0.34679 0.424758 0.222879 0.257934 0.224891 0.262462 0.216469 0.248502 0.218546 0.251564 0.257934 0.305929 0.262462 0.31223 0.248502 0.290524 0.251564 0.296006 0.305929 0.375546 0.31223 0.383825 0.290524 0.34679 0.296006 0.355575 0.224891 0.262462 0.222871 0.257915 0.218546 0.251564 0.216461 0.248494 0.262462 0.31223 0.257915 0.305956 0.251564 0.296006 0.248494 0.290476 0.31223 0.383825 0.305956 0.374071 0.296006 0.355575 0.290476 0.346784 0.383825 0.500632 0.374071 0.481405 0.355575 0.440898 0.346784 0.425004 0.222871 0.257915 0.216463 0.248491 0.216461 0.248494 0.210748 0.239901 0.257915 0.305956 0.248491 0.290475 0.248494 0.290476 0.239901 0.277023 0.305956 0.374071 0.290475 0.346813 0.290476 0.346784 0.277023 0.324769 0.374071 0.481405 0.346813 0.42512 0.346784 0.425004 0.324769 0.384206 0.216463 0.248491 0.207169 0.234691 0.210748 0.239901 0.20216 0.227453 0.248491 0.290475 0.234691 0.269081 0.239901 0.277023 0.227453 0.258355 0.290475 0.346813 0.269081 0.312123 0.277023 0.324769 0.258355 0.295709 0.346813 0.42512 0.312123 0.365146 0.324769 0.384206 0.295709 0.339223 0.42512 0.530611 0.365146 0.425106 0.384206 0.459951 0.339223 0.385623 0.530227 0.425288 0.425718 0.365129 0.460513 0.387543 0.385961 0.339051 0.207169 0.234691 0.195922 0.218681 0.20216 0.227453 0.191672 0.212808 0.234691 0.269081 0.218681 0.245791 0.227453 0.258355 0.212808 0.237537 0.269081 0.312123 0.245791 0.277319 0.258355 0.295709 0.237537 0.265616 0.312123 0.365146 0.277319 0.312224 0.295709 0.339223 0.265616 0.295788 0.365146 0.425106 0.312224 0.347683 0.339223 0.385623 0.295788 0.324458 0.425106 0.481132 0.347683 0.375162 0.385623 0.425623 0.324458 0.347078 0.481132 0.5034 0.375162 0.386016 0.425623 0.44141 0.347078 0.355776 0.5034 0.481234 0.386016 0.375084 0.44141 0.425722 0.355776 0.347041 0.481234 0.425718 0.375084 0.346883 0.425722 0.385961 0.347041 0.324288 0.425718 0.365129 0.346883 0.312055 0.385961 0.339051 0.324288 0.295531 0.195922 0.218681 0.183372 0.202252 0.191672 0.212808 0.179889 0.197582 0.218681 0.245791 0.202252 0.223132 0.212808 0.237537 0.197582 0.216908 0.245791 0.277319 0.223132 0.245876 0.237537 0.265616 0.216908 0.237633 0.277319 0.312224 0.245876 0.269208 0.265616 0.295788 0.237633 0.258407 0.312224 0.347683 0.269208 0.289998 0.295788 0.324458 0.258407 0.277081 0.347683 0.375162 0.289998 0.306548 0.324458 0.347078 0.277081 0.28949 0.375162 0.386016 0.306548 0.312556 0.347078 0.355776 0.28949 0.295572 0.386016 0.375084 0.312556 0.306405 0.355776 0.347041 0.295572 0.28938 0.375084 0.346883 0.306405 0.289327 0.347041 0.324288 0.28938 0.276776 0.346883 0.312055 0.289327 0.267316 0.324288 0.295531 0.276776 0.256876 0.179896 0.197588 0.19168 0.212816 0.17449 0.190454 0.185155 0.203978 0.197588 0.216913 0.212816 0.237542 0.190454 0.207574 0.203978 0.22543 0.216913 0.237636 0.237542 0.26562 0.207574 0.225513 0.22543 0.248996 0.237636 0.25841 0.26562 0.295789 0.225513 0.243077 0.248996 0.27331 0.25841 0.277085 0.295789 0.324462 0.243077 0.258303 0.27331 0.295743 0.277085 0.289497 0.324462 0.347087 0.258303 0.269023 0.295743 0.312111 0.289497 0.295581 0.347087 0.355788 0.269023 0.272834 0.312111 0.318232 0.295581 0.289387 0.355788 0.34705 0.272834 0.268943 0.318232 0.312053 0.289387 0.27678 0.34705 0.324291 0.268943 0.258059 0.312053 0.295547 0.27678 0.256879 0.324291 0.295532 0.258059 0.24196 0.295547 0.273057 0.19168 0.212816 0.20217 0.227465 0.185155 0.203978 0.194562 0.216769 0.212816 0.237542 0.227465 0.258366 0.203978 0.22543 0.216769 0.242995 0.237542 0.26562 0.258366 0.295705 0.22543 0.248996 0.242995 0.273278 0.26562 0.295789 0.295705 0.339214 0.248996 0.27331 0.273278 0.306664 0.295789 0.324462 0.339214 0.385617 0.27331 0.295743 0.306664 0.339032 0.324462 0.347087 0.385617 0.425638 0.295743 0.312111 0.339032 0.365266 0.347087 0.355788 0.425638 0.441432 0.312111 0.318232 0.365266 0.375549 0.355788 0.34705 0.441432 0.425736 0.318232 0.312053 0.375549 0.365397 0.34705 0.324291 0.425736 0.385956 0.312053 0.295547 0.365397 0.339129 0.324291 0.295532 0.385956 0.339047 0.295547 0.273057 0.339129 0.306965 0.20217 0.227465 0.210757 0.239916 0.194562 0.216769 0.20218 0.227469 0.227465 0.258366 0.239916 0.277041 0.216769 0.242995 0.227469 0.258352 0.258366 0.295705 0.277041 0.324764 0.242995 0.273278 0.258352 0.295671 0.295705 0.339214 0.324764 0.384192 0.273278 0.306664 0.295671 0.339155 0.339214 0.385617 0.384192 0.459939 0.306664 0.339032 0.339155 0.385494 0.385617 0.425638 0.459939 0.528787 0.339032 0.365266 0.385494 0.425543 0.425736 0.385956 0.52895 0.460494 0.365397 0.339129 0.425709 0.386165 0.385956 0.339047 0.460494 0.387534 0.339129 0.306965 0.386165 0.339104 0.210757 0.239916 0.216469 0.248502 0.20218 0.227469 0.207186 0.234709 0.239916 0.277041 0.248502 0.290524 0.227469 0.258352 0.234709 0.269067 0.277041 0.324764 0.290524 0.34679 0.258352 0.295671 0.269067 0.312074 0.324764 0.384192 0.34679 0.424758 0.295671 0.339155 0.312074 0.365127 0.384192 0.459939 0.424758 0.529721 0.339155 0.385494 0.365127 0.425243 0.460494 0.387534 0.529541 0.425169 0.386165 0.339104 0.425912 0.365867 0.216469 0.248502 0.218546 0.251564 0.207186 0.234709 0.208932 0.237274 0.248502 0.290524 0.251564 0.296006 0.234709 0.269067 0.237274 0.273117 0.290524 0.34679 0.296006 0.355575 0.269067 0.312074 0.273117 0.318052 0.34679 0.424758 0.355575 0.440898 0.312074 0.365127 0.318052 0.375413 0.218546 0.251564 0.216461 0.248494 0.208932 0.237274 0.207182 0.234702 0.251564 0.296006 0.248494 0.290476 0.237274 0.273117 0.234702 0.269064 0.296006 0.355575 0.290476 0.346784 0.273117 0.318052 0.269064 0.312066 0.355575 0.440898 0.346784 0.425004 0.318052 0.375413 0.312066 0.365116 0.216461 0.248494 0.210748 0.239901 0.207182 0.234702 0.202173 0.227461 0.248494 0.290476 0.239901 0.277023 0.234702 0.269064 0.227461 0.258344 0.290476 0.346784 0.277023 0.324769 0.269064 0.312066 0.258344 0.295673 0.346784 0.425004 0.324769 0.384206 0.312066 0.365116 0.295673 0.339158 0.425004 0.529749 0.384206 0.459951 0.365116 0.425223 0.339158 0.385499 0.529564 0.425175 0.460513 0.387543 0.425917 0.365871 0.386171 0.339108 0.210748 0.239901 0.20216 0.227453 0.202173 0.227461 0.194556 0.216762 0.239901 0.277023 0.227453 0.258355 0.227461 0.258344 0.216762 0.242991 0.277023 0.324769 0.258355 0.295709 0.258344 0.295673 0.242991 0.273276 0.324769 0.384206 0.295709 0.339223 0.295673 0.339158 0.273276 0.306665 0.384206 0.459951 0.339223 0.385623 0.339158 0.385499 0.306665 0.339031 0.459951 0.528837 0.385623 0.425623 0.385499 0.425528 0.339031 0.365259 0.529001 0.460513 0.425722 0.385961 0.425696 0.386171 0.365392 0.339129 0.460513 0.387543 0.385961 0.339051 0.386171 0.339108 0.339129 0.306967 0.20216 0.227453 0.191672 0.212808 0.194556 0.216762 0.18515 0.203972 0.227453 0.258355 0.212808 0.237537 0.216762 0.242991 0.203972 0.225426 0.258355 0.295709 0.237537 0.265616 0.242991 0.273276 0.225426 0.248993 0.295709 0.339223 0.265616 0.295788 0.273276 0.306665 0.248993 0.273308 0.339223 0.385623 0.295788 0.324458 0.306665 0.339031 0.273308 0.29574 0.385623 0.425623 0.324458 0.347078 0.339031 0.365259 0.29574 0.312105 0.425623 0.44141 0.347078 0.355776 0.365259 0.375539 0.312105 0.318225 0.44141 0.425722 0.355776 0.347041 0.375539 0.365392 0.318225 0.312048 0.425722 0.385961 0.347041 0.324288 0.365392 0.339129 0.312048 0.295545 0.385961 0.339051 0.324288 0.295531 0.339129 0.306967 0.295545 0.273056 0.191672 0.212808 0.179889 0.197582 0.18515 0.203972 0.174485 0.190449 0.212808 0.237537 0.197582 0.216908 0.203972 0.225426 0.190449 0.20757 0.237537 0.265616 0.216908 0.237633 0.225426 0.248993 0.20757 0.225511 0.265616 0.295788 0.237633 0.258407 0.248993 0.273308 0.225511 0.243075 0.295788 0.324458 0.258407 0.277081 0.273308 0.29574 0.243075 0.258299 0.324458 0.347078 0.277081 0.28949 0.29574 0.312105 0.258299 0.269018 0.347078 0.355776 0.28949 0.295572 0.312105 0.318225 0.269018 0.272829 0.355776 0.347041 0.295572 0.28938 0.318225 0.312048 0.272829 0.268938 0.347041 0.324288 0.28938 0.276776 0.312048 0.295545 0.268938 0.258056 0.324288 0.295531 0.276776 0.256876 0.295545 0.273056 0.258056 0.241958 0.17449 0.190454 0.185155 0.203978 0.16765 0.181619 0.177019 0.193235 0.190454 0.207574 0.203978 0.22543 0.181619 0.196272 0.193235 0.211164 0.207574 0.225513 0.22543 0.248996 0.196272 0.211234 0.211164 0.230145 0.225513 0.243077 0.248996 0.27331 0.211234 0.225476 0.230145 0.24896 0.243077 0.258303 0.27331 0.295743 0.225476 0.237556 0.24896 0.265536 0.258303 0.269023 0.295743 0.312111 0.237556 0.245747 0.265536 0.277226 0.269023 0.272834 0.312111 0.318232 0.245747 0.248653 0.277226 0.281464 0.272834 0.268943 0.318232 0.312053 0.248653 0.245663 0.281464 0.277167 0.268943 0.258059 0.312053 0.295547 0.245663 0.237344 0.277167 0.265339 0.258059 0.24196 0.295547 0.273057 0.237344 0.224644 0.265339 0.248749 0.185155 0.203978 0.194562 0.216769 0.177019 0.193235 0.185195 0.204013 0.203978 0.22543 0.216769 0.242995 0.193235 0.211164 0.204013 0.2254 0.22543 0.248996 0.242995 0.273278 0.211164 0.230145 0.2254 0.24894 0.248996 0.27331 0.273278 0.306664 0.230145 0.24896 0.24894 0.273248 0.27331 0.295743 0.306664 0.339032 0.24896 0.265536 0.273248 0.29567 0.295743 0.312111 0.339032 0.365266 0.265536 0.277226 0.29567 0.311985 0.312111 0.318232 0.365266 0.375549 0.277226 0.281464 0.311985 0.317995 0.318232 0.312053 0.375549 0.365397 0.281464 0.277167 0.317995 0.311827 0.312053 0.295547 0.365397 0.339129 0.277167 0.265339 0.311827 0.295553 0.295547 0.273057 0.339129 0.306965 0.265339 0.248749 0.295553 0.273051 0.194562 0.216769 0.20218 0.227469 0.185195 0.204013 0.191736 0.212864 0.216769 0.242995 0.227469 0.258352 0.204013 0.2254 0.212864 0.2375 0.242995 0.273278 0.258352 0.295671 0.2254 0.24894 0.2375 0.265528 0.273278 0.306664 0.295671 0.339155 0.24894 0.273248 0.265528 0.295644 0.306664 0.339032 0.339155 0.385494 0.273248 0.29567 0.295644 0.324404 0.339032 0.365266 0.385494 0.425543 0.29567 0.311985 0.324404 0.346673 0.365266 0.375549 0.425543 0.441348 0.311985 0.317995 0.346673 0.355558 0.375549 0.365397 0.441348 0.425709 0.317995 0.311827 0.355558 0.346927 0.365397 0.339129 0.425709 0.386165 0.311827 0.295553 0.346927 0.323359 0.339129 0.306965 0.386165 0.339104 0.295553 0.273051 0.323359 0.295336 0.20218 0.227469 0.207186 0.234709 0.191736 0.212864 0.195992 0.218744 0.227469 0.258352 0.234709 0.269067 0.212864 0.2375 0.218744 0.24575 0.258352 0.295671 0.269067 0.312074 0.2375 0.265528 0.24575 0.277213 0.295671 0.339155 0.312074 0.365127 0.265528 0.295644 0.277213 0.311964 0.339155 0.385494 0.365127 0.425243 0.295644 0.324404 0.311964 0.346645 0.385494 0.425543 0.425243 0.480984 0.324404 0.346673 0.346645 0.374787 0.425543 0.441348 0.480984 0.503316 0.346673 0.355558 0.374787 0.385713 0.441348 0.425709 0.503316 0.481137 0.355558 0.346927 0.385713 0.374897 0.425709 0.386165 0.481137 0.425912 0.346927 0.323359 0.374897 0.346996 0.386165 0.339104 0.425912 0.365867 0.323359 0.295336 0.346996 0.311849 0.207186 0.234709 0.208932 0.237274 0.195992 0.218744 0.19747 0.220816 0.234709 0.269067 0.237274 0.273117 0.218744 0.24575 0.220816 0.248671 0.269067 0.312074 0.273117 0.318052 0.24575 0.277213 0.248671 0.28149 0.312074 0.365127 0.318052 0.375413 0.277213 0.311964 0.28149 0.317968 0.365127 0.425243 0.375413 0.441152 0.311964 0.346645 0.317968 0.355508 0.425243 0.480984 0.441152 0.503217 0.346645 0.374787 0.355508 0.38568 0.480984 0.503316 0.503217 0.530448 0.374787 0.385713 0.38568 0.397589 0.503316 0.481137 0.530448 0.503407 0.385713 0.374897 0.397589 0.385753 0.481137 0.425912 0.503407 0.441665 0.374897 0.346996 0.385753 0.355672 0.425912 0.365867 0.441665 0.376346 0.346996 0.311849 0.355672 0.318038 0.208932 0.237274 0.207182 0.234702 0.19747 0.220816 0.195989 0.218741 0.237274 0.273117 0.234702 0.269064 0.220816 0.248671 0.218741 0.245748 0.273117 0.318052 0.269064 0.312066 0.248671 0.28149 0.245748 0.277212 0.318052 0.375413 0.312066 0.365116 0.28149 0.317968 0.277212 0.311961 0.375413 0.441152 0.365116 0.425223 0.317968 0.355508 0.311961 0.346639 0.441152 0.503217 0.425223 0.480952 0.355508 0.38568 0.346639 0.374778 0.503217 0.530448 0.480952 0.503279 0.38568 0.397589 0.374778 0.385702 0.530448 0.503407 0.503279 0.481127 0.397589 0.385753 0.385702 0.374891 0.503407 0.441665 0.481127 0.425917 0.385753 0.355672 0.374891 0.346995 0.441665 0.376346 0.425917 0.365871 0.355672 0.318038 0.346995 0.311849 0.207182 0.234702 0.202173 0.227461 0.195989 0.218741 0.191732 0.21286 0.234702 0.269064 0.227461 0.258344 0.218741 0.245748 0.21286 0.237498 0.269064 0.312066 0.258344 0.295673 0.245748 0.277212 0.237498 0.265526 0.312066 0.365116 0.295673 0.339158 0.277212 0.311961 0.265526 0.295641 0.365116 0.425223 0.339158 0.385499 0.311961 0.346639 0.295641 0.324399 0.425223 0.480952 0.385499 0.425528 0.346639 0.374778 0.324399 0.346665 0.480952 0.503279 0.425528 0.441326 0.374778 0.385702 0.346665 0.355548 0.503279 0.481127 0.441326 0.425696 0.385702 0.374891 0.355548 0.346921 0.481127 0.425917 0.425696 0.386171 0.374891 0.346995 0.346921 0.323357 0.425917 0.365871 0.386171 0.339108 0.346995 0.311849 0.323357 0.295336 0.202173 0.227461 0.194556 0.216762 0.191732 0.21286 0.185191 0.204009 0.227461 0.258344 0.216762 0.242991 0.21286 0.237498 0.204009 0.225397 0.258344 0.295673 0.242991 0.273276 0.237498 0.265526 0.225397 0.248938 0.295673 0.339158 0