<?xml version="1.0" ?> 
<!-- 
# vtk DataFile Version 3.0
#This file was generated by the deal.II library on 16:49:23 at 2019/11/27
-->
<VTKFile type="UnstructuredGrid" version="0.1" byte_order="LittleEndian">
<UnstructuredGrid>
<Piece NumberOfPoints="39584" NumberOfCells="4948" >
  <Points>
    <DataArray type="Float32" NumberOfComponents="3" format="ascii">
-50 -50 0
-40 -50 0
-50 -40 0
-40 -40 0
-50 -50 10
-40 -50 10
-50 -40 10
-40 -40 10
-40 -50 0
-30 -50 0
-40 -40 0
-30 -40 0
-40 -50 10
-30 -50 10
-40 -40 10
-30 -40 10
-30 -50 0
-20 -50 0
-30 -40 0
-20 -40 0
-30 -50 10
-20 -50 10
-30 -40 10
-20 -40 10
-20 -50 0
-10 -50 0
-20 -40 0
-10 -40 0
-20 -50 10
-10 -50 10
-20 -40 10
-10 -40 10
-10 -50 0
0 -50 0
-10 -40 0
0 -40 0
-10 -50 10
0 -50 10
-10 -40 10
0 -40 10
0 -50 0
10 -50 0
0 -40 0
10 -40 0
0 -50 10
10 -50 10
0 -40 10
10 -40 10
10 -50 0
20 -50 0
10 -40 0
20 -40 0
10 -50 10
20 -50 10
10 -40 10
20 -40 10
20 -50 0
30 -50 0
20 -40 0
30 -40 0
20 -50 10
30 -50 10
20 -40 10
30 -40 10
30 -50 0
40 -50 0
30 -40 0
40 -40 0
30 -50 10
40 -50 10
30 -40 10
40 -40 10
40 -50 0
50 -50 0
40 -40 0
50 -40 0
40 -50 10
50 -50 10
40 -40 10
50 -40 10
-50 -40 0
-40 -40 0
-50 -30 0
-40 -30 0
-50 -40 10
-40 -40 10
-50 -30 10
-40 -30 10
-40 -40 0
-30 -40 0
-40 -30 0
-30 -30 0
-40 -40 10
-30 -40 10
-40 -30 10
-30 -30 10
-30 -40 0
-20 -40 0
-30 -30 0
-20 -30 0
-30 -40 10
-20 -40 10
-30 -30 10
-20 -30 10
-20 -40 0
-10 -40 0
-20 -30 0
-10 -30 0
-20 -40 10
-10 -40 10
-20 -30 10
-10 -30 10
-10 -40 0
0 -40 0
-10 -30 0
0 -30 0
-10 -40 10
0 -40 10
-10 -30 10
0 -30 10
0 -40 0
10 -40 0
0 -30 0
10 -30 0
0 -40 10
10 -40 10
0 -30 10
10 -30 10
10 -40 0
20 -40 0
10 -30 0
20 -30 0
10 -40 10
20 -40 10
10 -30 10
20 -30 10
20 -40 0
30 -40 0
20 -30 0
30 -30 0
20 -40 10
30 -40 10
20 -30 10
30 -30 10
30 -40 0
40 -40 0
30 -30 0
40 -30 0
30 -40 10
40 -40 10
30 -30 10
40 -30 10
40 -40 0
50 -40 0
40 -30 0
50 -30 0
40 -40 10
50 -40 10
40 -30 10
50 -30 10
-50 -30 0
-40 -30 0
-50 -20 0
-40 -20 0
-50 -30 10
-40 -30 10
-50 -20 10
-40 -20 10
-40 -30 0
-30 -30 0
-40 -20 0
-30 -20 0
-40 -30 10
-30 -30 10
-40 -20 10
-30 -20 10
-30 -30 0
-20 -30 0
-30 -20 0
-20 -20 0
-30 -30 10
-20 -30 10
-30 -20 10
-20 -20 10
-20 -30 0
-10 -30 0
-20 -20 0
-10 -20 0
-20 -30 10
-10 -30 10
-20 -20 10
-10 -20 10
-10 -30 0
0 -30 0
-10 -20 0
0 -20 0
-10 -30 10
0 -30 10
-10 -20 10
0 -20 10
-50 -20 0
-40 -20 0
-50 -10 0
-40 -10 0
-50 -20 10
-40 -20 10
-50 -10 10
-40 -10 10
-40 -20 0
-30 -20 0
-40 -10 0
-30 -10 0
-40 -20 10
-30 -20 10
-40 -10 10
-30 -10 10
-30 -20 0
-20 -20 0
-30 -10 0
-20 -10 0
-30 -20 10
-20 -20 10
-30 -10 10
-20 -10 10
-20 -20 0
-10 -20 0
-20 -10 0
-10 -10 0
-20 -20 10
-10 -20 10
-20 -10 10
-10 -10 10
-10 -20 0
0 -20 0
-10 -10 0
0 -10 0
-10 -20 10
0 -20 10
-10 -10 10
0 -10 10
-50 -10 0
-40 -10 0
-50 0 0
-40 0 0
-50 -10 10
-40 -10 10
-50 0 10
-40 0 10
-40 -10 0
-30 -10 0
-40 0 0
-30 0 0
-40 -10 10
-30 -10 10
-40 0 10
-30 0 10
-30 -10 0
-20 -10 0
-30 0 0
-20 0 0
-30 -10 10
-20 -10 10
-30 0 10
-20 0 10
-50 0 0
-40 0 0
-50 10 0
-40 10 0
-50 0 10
-40 0 10
-50 10 10
-40 10 10
-40 0 0
-30 0 0
-40 10 0
-30 10 0
-40 0 10
-30 0 10
-40 10 10
-30 10 10
-30 0 0
-20 0 0
-30 10 0
-20 10 0
-30 0 10
-20 0 10
-30 10 10
-20 10 10
-50 10 0
-40 10 0
-50 20 0
-40 20 0
-50 10 10
-40 10 10
-50 20 10
-40 20 10
-40 10 0
-30 10 0
-40 20 0
-30 20 0
-40 10 10
-30 10 10
-40 20 10
-30 20 10
-30 10 0
-20 10 0
-30 20 0
-20 20 0
-30 10 10
-20 10 10
-30 20 10
-20 20 10
-20 10 0
-10 10 0
-20 20 0
-10 20 0
-20 10 10
-10 10 10
-20 20 10
-10 20 10
-10 10 0
0 10 0
-10 20 0
0 20 0
-10 10 10
0 10 10
-10 20 10
0 20 10
-50 20 0
-40 20 0
-50 30 0
-40 30 0
-50 20 10
-40 20 10
-50 30 10
-40 30 10
-40 20 0
-30 20 0
-40 30 0
-30 30 0
-40 20 10
-30 20 10
-40 30 10
-30 30 10
-30 20 0
-20 20 0
-30 30 0
-20 30 0
-30 20 10
-20 20 10
-30 30 10
-20 30 10
-20 20 0
-10 20 0
-20 30 0
-10 30 0
-20 20 10
-10 20 10
-20 30 10
-10 30 10
-10 20 0
0 20 0
-10 30 0
0 30 0
-10 20 10
0 20 10
-10 30 10
0 30 10
-50 30 0
-40 30 0
-50 40 0
-40 40 0
-50 30 10
-40 30 10
-50 40 10
-40 40 10
-40 30 0
-30 30 0
-40 40 0
-30 40 0
-40 30 10
-30 30 10
-40 40 10
-30 40 10
-30 30 0
-20 30 0
-30 40 0
-20 40 0
-30 30 10
-20 30 10
-30 40 10
-20 40 10
-20 30 0
-10 30 0
-20 40 0
-10 40 0
-20 30 10
-10 30 10
-20 40 10
-10 40 10
-10 30 0
0 30 0
-10 40 0
0 40 0
-10 30 10
0 30 10
-10 40 10
0 40 10
0 30 0
10 30 0
0 40 0
10 40 0
0 30 10
10 30 10
0 40 10
10 40 10
10 30 0
20 30 0
10 40 0
20 40 0
10 30 10
20 30 10
10 40 10
20 40 10
20 30 0
30 30 0
20 40 0
30 40 0
20 30 10
30 30 10
20 40 10
30 40 10
30 30 0
40 30 0
30 40 0
40 40 0
30 30 10
40 30 10
30 40 10
40 40 10
40 30 0
50 30 0
40 40 0
50 40 0
40 30 10
50 30 10
40 40 10
50 40 10
-50 40 0
-40 40 0
-50 50 0
-40 50 0
-50 40 10
-40 40 10
-50 50 10
-40 50 10
-40 40 0
-30 40 0
-40 50 0
-30 50 0
-40 40 10
-30 40 10
-40 50 10
-30 50 10
-30 40 0
-20 40 0
-30 50 0
-20 50 0
-30 40 10
-20 40 10
-30 50 10
-20 50 10
-20 40 0
-10 40 0
-20 50 0
-10 50 0
-20 40 10
-10 40 10
-20 50 10
-10 50 10
-10 40 0
0 40 0
-10 50 0
0 50 0
-10 40 10
0 40 10
-10 50 10
0 50 10
0 40 0
10 40 0
0 50 0
10 50 0
0 40 10
10 40 10
0 50 10
10 50 10
10 40 0
20 40 0
10 50 0
20 50 0
10 40 10
20 40 10
10 50 10
20 50 10
20 40 0
30 40 0
20 50 0
30 50 0
20 40 10
30 40 10
20 50 10
30 50 10
30 40 0
40 40 0
30 50 0
40 50 0
30 40 10
40 40 10
30 50 10
40 50 10
40 40 0
50 40 0
40 50 0
50 50 0
40 40 10
50 40 10
40 50 10
50 50 10
-50 -50 10
-40 -50 10
-50 -40 10
-40 -40 10
-50 -50 20
-40 -50 20
-50 -40 20
-40 -40 20
-40 -50 10
-30 -50 10
-40 -40 10
-30 -40 10
-40 -50 20
-30 -50 20
-40 -40 20
-30 -40 20
-30 -50 10
-20 -50 10
-30 -40 10
-20 -40 10
-30 -50 20
-20 -50 20
-30 -40 20
-20 -40 20
-20 -50 10
-10 -50 10
-20 -40 10
-10 -40 10
-20 -50 20
-10 -50 20
-20 -40 20
-10 -40 20
-10 -50 10
0 -50 10
-10 -40 10
0 -40 10
-10 -50 20
0 -50 20
-10 -40 20
0 -40 20
0 -50 10
10 -50 10
0 -40 10
10 -40 10
0 -50 20
10 -50 20
0 -40 20
10 -40 20
10 -50 10
20 -50 10
10 -40 10
20 -40 10
10 -50 20
20 -50 20
10 -40 20
20 -40 20
20 -50 10
30 -50 10
20 -40 10
30 -40 10
20 -50 20
30 -50 20
20 -40 20
30 -40 20
30 -50 10
40 -50 10
30 -40 10
40 -40 10
30 -50 20
40 -50 20
30 -40 20
40 -40 20
40 -50 10
50 -50 10
40 -40 10
50 -40 10
40 -50 20
50 -50 20
40 -40 20
50 -40 20
-50 -40 10
-40 -40 10
-50 -30 10
-40 -30 10
-50 -40 20
-40 -40 20
-50 -30 20
-40 -30 20
-40 -40 10
-30 -40 10
-40 -30 10
-30 -30 10
-40 -40 20
-30 -40 20
-40 -30 20
-30 -30 20
-30 -40 10
-20 -40 10
-30 -30 10
-20 -30 10
-30 -40 20
-20 -40 20
-30 -30 20
-20 -30 20
-20 -40 10
-10 -40 10
-20 -30 10
-10 -30 10
-20 -40 20
-10 -40 20
-20 -30 20
-10 -30 20
-10 -40 10
0 -40 10
-10 -30 10
0 -30 10
-10 -40 20
0 -40 20
-10 -30 20
0 -30 20
0 -40 10
10 -40 10
0 -30 10
10 -30 10
0 -40 20
10 -40 20
0 -30 20
10 -30 20
10 -40 10
20 -40 10
10 -30 10
20 -30 10
10 -40 20
20 -40 20
10 -30 20
20 -30 20
20 -40 10
30 -40 10
20 -30 10
30 -30 10
20 -40 20
30 -40 20
20 -30 20
30 -30 20
30 -40 10
40 -40 10
30 -30 10
40 -30 10
30 -40 20
40 -40 20
30 -30 20
40 -30 20
40 -40 10
50 -40 10
40 -30 10
50 -30 10
40 -40 20
50 -40 20
40 -30 20
50 -30 20
-50 -30 10
-40 -30 10
-50 -20 10
-40 -20 10
-50 -30 20
-40 -30 20
-50 -20 20
-40 -20 20
-40 -30 10
-30 -30 10
-40 -20 10
-30 -20 10
-40 -30 20
-30 -30 20
-40 -20 20
-30 -20 20
-30 -30 10
-20 -30 10
-30 -20 10
-20 -20 10
-30 -30 20
-20 -30 20
-30 -20 20
-20 -20 20
-20 -30 10
-10 -30 10
-20 -20 10
-10 -20 10
-20 -30 20
-10 -30 20
-20 -20 20
-10 -20 20
-10 -30 10
0 -30 10
-10 -20 10
0 -20 10
-10 -30 20
0 -30 20
-10 -20 20
0 -20 20
-50 -20 10
-40 -20 10
-50 -10 10
-40 -10 10
-50 -20 20
-40 -20 20
-50 -10 20
-40 -10 20
-40 -20 10
-30 -20 10
-40 -10 10
-30 -10 10
-40 -20 20
-30 -20 20
-40 -10 20
-30 -10 20
-30 -20 10
-20 -20 10
-30 -10 10
-20 -10 10
-30 -20 20
-20 -20 20
-30 -10 20
-20 -10 20
-20 -20 10
-10 -20 10
-20 -10 10
-10 -10 10
-20 -20 20
-10 -20 20
-20 -10 20
-10 -10 20
-10 -20 10
0 -20 10
-10 -10 10
0 -10 10
-10 -20 20
0 -20 20
-10 -10 20
0 -10 20
-50 -10 10
-40 -10 10
-50 0 10
-40 0 10
-50 -10 20
-40 -10 20
-50 0 20
-40 0 20
-40 -10 10
-30 -10 10
-40 0 10
-30 0 10
-40 -10 20
-30 -10 20
-40 0 20
-30 0 20
-30 -10 10
-20 -10 10
-30 0 10
-20 0 10
-30 -10 20
-20 -10 20
-30 0 20
-20 0 20
-20 -10 10
-10 -10 10
-20 0 10
-10 0 10
-20 -10 20
-10 -10 20
-20 0 20
-10 0 20
-10 -10 10
0 -10 10
-10 0 10
0 0 10
-10 -10 20
0 -10 20
-10 0 20
0 0 20
-50 0 10
-40 0 10
-50 10 10
-40 10 10
-50 0 20
-40 0 20
-50 10 20
-40 10 20
-40 0 10
-30 0 10
-40 10 10
-30 10 10
-40 0 20
-30 0 20
-40 10 20
-30 10 20
-30 0 10
-20 0 10
-30 10 10
-20 10 10
-30 0 20
-20 0 20
-30 10 20
-20 10 20
-20 0 10
-10 0 10
-20 10 10
-10 10 10
-20 0 20
-10 0 20
-20 10 20
-10 10 20
-10 0 10
0 0 10
-10 10 10
0 10 10
-10 0 20
0 0 20
-10 10 20
0 10 20
-50 10 10
-40 10 10
-50 20 10
-40 20 10
-50 10 20
-40 10 20
-50 20 20
-40 20 20
-40 10 10
-30 10 10
-40 20 10
-30 20 10
-40 10 20
-30 10 20
-40 20 20
-30 20 20
-30 10 10
-20 10 10
-30 20 10
-20 20 10
-30 10 20
-20 10 20
-30 20 20
-20 20 20
-20 10 10
-10 10 10
-20 20 10
-10 20 10
-20 10 20
-10 10 20
-20 20 20
-10 20 20
-10 10 10
0 10 10
-10 20 10
0 20 10
-10 10 20
0 10 20
-10 20 20
0 20 20
-50 20 10
-40 20 10
-50 30 10
-40 30 10
-50 20 20
-40 20 20
-50 30 20
-40 30 20
-40 20 10
-30 20 10
-40 30 10
-30 30 10
-40 20 20
-30 20 20
-40 30 20
-30 30 20
-30 20 10
-20 20 10
-30 30 10
-20 30 10
-30 20 20
-20 20 20
-30 30 20
-20 30 20
-20 20 10
-10 20 10
-20 30 10
-10 30 10
-20 20 20
-10 20 20
-20 30 20
-10 30 20
-10 20 10
0 20 10
-10 30 10
0 30 10
-10 20 20
0 20 20
-10 30 20
0 30 20
-50 30 10
-40 30 10
-50 40 10
-40 40 10
-50 30 20
-40 30 20
-50 40 20
-40 40 20
-40 30 10
-30 30 10
-40 40 10
-30 40 10
-40 30 20
-30 30 20
-40 40 20
-30 40 20
-30 30 10
-20 30 10
-30 40 10
-20 40 10
-30 30 20
-20 30 20
-30 40 20
-20 40 20
-20 30 10
-10 30 10
-20 40 10
-10 40 10
-20 30 20
-10 30 20
-20 40 20
-10 40 20
-10 30 10
0 30 10
-10 40 10
0 40 10
-10 30 20
0 30 20
-10 40 20
0 40 20
0 30 10
10 30 10
0 40 10
10 40 10
0 30 20
10 30 20
0 40 20
10 40 20
10 30 10
20 30 10
10 40 10
20 40 10
10 30 20
20 30 20
10 40 20
20 40 20
20 30 10
30 30 10
20 40 10
[...]
  <PointData Scalars="scalars">
    <DataArray type="Float32" Name="u" format="ascii">
0.168297 0.185008 0.17784 0.197342 0.167382 0.183788 0.176757 0.195862 0.185008 0.203905 0.197342 0.220766 0.183788 0.202275 0.195862 0.2187 0.203905 0.225303 0.220766 0.248684 0.202275 0.223117 0.2187 0.245742 0.225303 0.248731 0.248684 0.281506 0.223117 0.245801 0.245742 0.277285 0.248731 0.272755 0.281506 0.318197 0.245801 0.268893 0.277285 0.31208 0.272755 0.295622 0.318197 0.355756 0.268893 0.290582 0.31208 0.347151 0.295622 0.312353 0.355756 0.385846 0.290582 0.306404 0.347151 0.374735 0.312353 0.318566 0.385846 0.397707 0.306404 0.312227 0.374735 0.385412 0.318566 0.311999 0.397707 0.38593 0.312227 0.306007 0.385412 0.37474 0.311999 0.293092 0.38593 0.355239 0.306007 0.288316 0.37474 0.346795 0.17784 0.197342 0.186141 0.208866 0.176757 0.195862 0.184899 0.207114 0.197342 0.220766 0.208866 0.237212 0.195862 0.2187 0.207114 0.234642 0.220766 0.248684 0.237212 0.272938 0.2187 0.245742 0.234642 0.269072 0.248684 0.281506 0.272938 0.318072 0.245742 0.277285 0.269072 0.311952 0.281506 0.318197 0.318072 0.375381 0.277285 0.31208 0.311952 0.36549 0.318197 0.355756 0.375381 0.444163 0.31208 0.347151 0.36549 0.428062 0.355756 0.385846 0.444163 0.505506 0.347151 0.374735 0.428062 0.480653 0.385846 0.397707 0.505506 0.530483 0.374735 0.385412 0.480653 0.500782 0.397707 0.38593 0.530483 0.50728 0.385412 0.37474 0.500782 0.481486 0.38593 0.355239 0.50728 0.445742 0.37474 0.346795 0.481486 0.429717 0.186141 0.208866 0.192794 0.218467 0.184899 0.207114 0.19141 0.216456 0.208866 0.237212 0.218467 0.251464 0.207114 0.234642 0.216456 0.248411 0.237212 0.272938 0.251464 0.29555 0.234642 0.269072 0.248411 0.290687 0.272938 0.318072 0.29555 0.355636 0.269072 0.311952 0.290687 0.347066 0.318072 0.375381 0.355636 0.4447 0.311952 0.36549 0.347066 0.428046 0.192794 0.218467 0.197138 0.22491 0.19141 0.216456 0.195666 0.222664 0.218467 0.251464 0.22491 0.261931 0.216456 0.248411 0.222664 0.258648 0.251464 0.29555 0.261931 0.311799 0.248411 0.290687 0.258648 0.305644 0.29555 0.355636 0.311799 0.38306 0.290687 0.347066 0.305644 0.373352 0.355636 0.4447 0.38306 0.503175 0.347066 0.428046 0.373352 0.481374 0.197138 0.22491 0.198649 0.227222 0.195666 0.222664 0.197137 0.224911 0.22491 0.261931 0.227222 0.265402 0.222664 0.258648 0.224911 0.261932 0.261931 0.311799 0.265402 0.319892 0.258648 0.305644 0.261932 0.311798 0.198649 0.227222 0.197137 0.22491 0.197137 0.224911 0.195666 0.222663 0.227222 0.265402 0.22491 0.26193 0.224911 0.261932 0.222663 0.258647 0.265402 0.319892 0.26193 0.311797 0.261932 0.311798 0.258647 0.305642 0.197137 0.22491 0.192794 0.218467 0.195666 0.222663 0.19141 0.216455 0.22491 0.26193 0.218467 0.251463 0.222663 0.258647 0.216455 0.24841 0.26193 0.311797 0.251463 0.295548 0.258647 0.305642 0.24841 0.290684 0.311797 0.383053 0.295548 0.35563 0.305642 0.373346 0.290684 0.34706 0.383053 0.503135 0.35563 0.444683 0.373346 0.481343 0.34706 0.428036 0.192794 0.218467 0.18614 0.208866 0.19141 0.216455 0.184898 0.207114 0.218467 0.251463 0.208866 0.237211 0.216455 0.24841 0.207114 0.234642 0.251463 0.295548 0.237211 0.272937 0.24841 0.290684 0.234642 0.269071 0.295548 0.35563 0.272937 0.318071 0.290684 0.34706 0.269071 0.311951 0.35563 0.444683 0.318071 0.375385 0.34706 0.428036 0.311951 0.365493 0.18614 0.208866 0.177839 0.197342 0.184898 0.207114 0.176756 0.195862 0.208866 0.237211 0.197342 0.220766 0.207114 0.234642 0.195862 0.2187 0.237211 0.272937 0.220766 0.248684 0.234642 0.269071 0.2187 0.245743 0.272937 0.318071 0.248684 0.281509 0.269071 0.311951 0.245743 0.277288 0.318071 0.375385 0.281509 0.318205 0.311951 0.365493 0.277288 0.312088 0.375385 0.444176 0.318205 0.355772 0.365493 0.428077 0.312088 0.347168 0.444176 0.505537 0.355772 0.385873 0.428077 0.480686 0.347168 0.374764 0.505537 0.530531 0.385873 0.397744 0.480686 0.500826 0.374764 0.38545 0.530531 0.507327 0.397744 0.385967 0.500826 0.481533 0.38545 0.374778 0.507327 0.445777 0.385967 0.355274 0.481533 0.429754 0.374778 0.34683 0.177839 0.197342 0.168297 0.185008 0.176756 0.195862 0.167382 0.183788 0.197342 0.220766 0.185008 0.203906 0.195862 0.2187 0.183788 0.202276 0.220766 0.248684 0.203906 0.225304 0.2187 0.245743 0.202276 0.223118 0.248684 0.281509 0.225304 0.248734 0.245743 0.277288 0.223118 0.245805 0.281509 0.318205 0.248734 0.272764 0.277288 0.312088 0.245805 0.268901 0.318205 0.355772 0.272764 0.295637 0.312088 0.347168 0.268901 0.290597 0.355772 0.385873 0.295637 0.312376 0.347168 0.374764 0.290597 0.306427 0.385873 0.397744 0.312376 0.318595 0.374764 0.38545 0.306427 0.312257 0.397744 0.385967 0.318595 0.31203 0.38545 0.374778 0.312257 0.306038 0.385967 0.355274 0.31203 0.293121 0.374778 0.34683 0.306038 0.288346 0.167382 0.183788 0.176757 0.195862 0.16472 0.180262 0.173619 0.191612 0.183788 0.202275 0.195862 0.2187 0.180262 0.197606 0.191612 0.212824 0.202275 0.223117 0.2187 0.245742 0.197606 0.216899 0.212824 0.237519 0.223117 0.245801 0.245742 0.277285 0.216899 0.237587 0.237519 0.265604 0.245801 0.268893 0.277285 0.31208 0.237587 0.258245 0.265604 0.29574 0.268893 0.290582 0.31208 0.347151 0.258245 0.27644 0.29574 0.323712 0.290582 0.306404 0.347151 0.374735 0.27644 0.290558 0.323712 0.347141 0.306404 0.312227 0.374735 0.385412 0.290558 0.295485 0.347141 0.355784 0.312227 0.306007 0.385412 0.37474 0.295485 0.289217 0.355784 0.34683 0.306007 0.288316 0.37474 0.346795 0.289217 0.275428 0.34683 0.325067 0.176757 0.195862 0.184899 0.207114 0.173619 0.191612 0.181313 0.202107 0.195862 0.2187 0.207114 0.234642 0.191612 0.212824 0.202107 0.227421 0.2187 0.245742 0.234642 0.269072 0.212824 0.237519 0.227421 0.25825 0.245742 0.277285 0.269072 0.311952 0.237519 0.265604 0.25825 0.295697 0.277285 0.31208 0.311952 0.36549 0.265604 0.29574 0.295697 0.339751 0.31208 0.347151 0.36549 0.428062 0.29574 0.323712 0.339751 0.38635 0.347151 0.374735 0.428062 0.480653 0.323712 0.347141 0.38635 0.428257 0.374735 0.385412 0.480653 0.500782 0.347141 0.355784 0.428257 0.445291 0.385412 0.37474 0.500782 0.481486 0.355784 0.34683 0.445291 0.428049 0.37474 0.346795 0.481486 0.429717 0.34683 0.325067 0.428049 0.38832 0.184899 0.207114 0.19141 0.216456 0.181313 0.202107 0.187442 0.210719 0.207114 0.234642 0.216456 0.248411 0.202107 0.227421 0.210719 0.239898 0.234642 0.269072 0.248411 0.290687 0.227421 0.25825 0.239898 0.276947 0.269072 0.311952 0.290687 0.347066 0.25825 0.295697 0.276947 0.323502 0.311952 0.36549 0.347066 0.428046 0.295697 0.339751 0.323502 0.386383 0.19141 0.216456 0.195666 0.222664 0.187442 0.210719 0.191413 0.216461 0.216456 0.248411 0.222664 0.258648 0.210719 0.239898 0.216461 0.248414 0.248411 0.290687 0.258648 0.305644 0.239898 0.276947 0.248414 0.290675 0.290687 0.347066 0.305644 0.373352 0.276947 0.323502 0.290675 0.347041 0.347066 0.428046 0.373352 0.481374 0.323502 0.386383 0.347041 0.428072 0.195666 0.222664 0.197137 0.224911 0.191413 0.216461 0.192796 0.218474 0.222664 0.258648 0.224911 0.261932 0.216461 0.248414 0.218474 0.251463 0.258648 0.305644 0.261932 0.311798 0.248414 0.290675 0.251463 0.295565 0.305644 0.373352 0.311798 0.383049 0.290675 0.347041 0.295565 0.355669 0.373352 0.481374 0.383049 0.503158 0.347041 0.428072 0.355669 0.444534 0.197137 0.224911 0.195666 0.222663 0.192796 0.218474 0.191413 0.21646 0.224911 0.261932 0.222663 0.258647 0.218474 0.251463 0.21646 0.248413 0.261932 0.311798 0.258647 0.305642 0.251463 0.295565 0.248413 0.290673 0.311798 0.383049 0.305642 0.373346 0.295565 0.355669 0.290673 0.347037 0.383049 0.503158 0.373346 0.481343 0.355669 0.444534 0.347037 0.428063 0.195666 0.222663 0.19141 0.216455 0.191413 0.21646 0.187442 0.210719 0.222663 0.258647 0.216455 0.24841 0.21646 0.248413 0.210719 0.239897 0.258647 0.305642 0.24841 0.290684 0.248413 0.290673 0.239897 0.276945 0.305642 0.373346 0.290684 0.34706 0.290673 0.347037 0.276945 0.323499 0.373346 0.481343 0.34706 0.428036 0.347037 0.428063 0.323499 0.386372 0.19141 0.216455 0.184898 0.207114 0.187442 0.210719 0.181313 0.202107 0.216455 0.24841 0.207114 0.234642 0.210719 0.239897 0.202107 0.22742 0.24841 0.290684 0.234642 0.269071 0.239897 0.276945 0.22742 0.258249 0.290684 0.34706 0.269071 0.311951 0.276945 0.323499 0.258249 0.295696 0.34706 0.428036 0.311951 0.365493 0.323499 0.386372 0.295696 0.339753 0.184898 0.207114 0.176756 0.195862 0.181313 0.202107 0.173619 0.191611 0.207114 0.234642 0.195862 0.2187 0.202107 0.22742 0.191611 0.212824 0.234642 0.269071 0.2187 0.245743 0.22742 0.258249 0.212824 0.237519 0.269071 0.311951 0.245743 0.277288 0.258249 0.295696 0.237519 0.265607 0.311951 0.365493 0.277288 0.312088 0.295696 0.339753 0.265607 0.295747 0.365493 0.428077 0.312088 0.347168 0.339753 0.386365 0.295747 0.32373 0.428077 0.480686 0.347168 0.374764 0.386365 0.428315 0.32373 0.347171 0.480686 0.500826 0.374764 0.38545 0.428315 0.445403 0.347171 0.355824 0.500826 0.481533 0.38545 0.374778 0.445403 0.42812 0.355824 0.346868 0.481533 0.429754 0.374778 0.34683 0.42812 0.388351 0.346868 0.325102 0.176756 0.195862 0.167382 0.183788 0.173619 0.191611 0.164719 0.180262 0.195862 0.2187 0.183788 0.202276 0.191611 0.212824 0.180262 0.197606 0.2187 0.245743 0.202276 0.223118 0.212824 0.237519 0.197606 0.2169 0.245743 0.277288 0.223118 0.245805 0.237519 0.265607 0.2169 0.23759 0.277288 0.312088 0.245805 0.268901 0.265607 0.295747 0.23759 0.258253 0.312088 0.347168 0.268901 0.290597 0.295747 0.32373 0.258253 0.276454 0.347168 0.374764 0.290597 0.306427 0.32373 0.347171 0.276454 0.29058 0.374764 0.38545 0.306427 0.312257 0.347171 0.355824 0.29058 0.295513 0.38545 0.374778 0.312257 0.306038 0.355824 0.346868 0.295513 0.289246 0.374778 0.34683 0.306038 0.288346 0.346868 0.325102 0.289246 0.275456 0.16472 0.180262 0.173619 0.191612 0.160541 0.1748 0.168731 0.185089 0.180262 0.197606 0.191612 0.212824 0.1748 0.190471 0.185089 0.203987 0.197606 0.216899 0.212824 0.237519 0.190471 0.20757 0.203987 0.225417 0.216899 0.237587 0.237519 0.265604 0.20757 0.225497 0.225417 0.248991 0.237587 0.258245 0.265604 0.29574 0.225497 0.242981 0.248991 0.27332 0.258245 0.27644 0.29574 0.323712 0.242981 0.258191 0.27332 0.295709 0.27644 0.290558 0.323712 0.347141 0.258191 0.268912 0.295709 0.31185 0.290558 0.295485 0.347141 0.355784 0.268912 0.272598 0.31185 0.318812 0.295485 0.289217 0.355784 0.34683 0.272598 0.26887 0.318812 0.311823 0.289217 0.275428 0.34683 0.325067 0.26887 0.257297 0.311823 0.29552 0.173619 0.191612 0.181313 0.202107 0.168731 0.185089 0.175768 0.194497 0.191612 0.212824 0.202107 0.227421 0.185089 0.203987 0.194497 0.216721 0.212824 0.237519 0.227421 0.25825 0.203987 0.225417 0.216721 0.242935 0.237519 0.265604 0.25825 0.295697 0.225417 0.248991 0.242935 0.273309 0.265604 0.29574 0.295697 0.339751 0.248991 0.27332 0.273309 0.306755 0.29574 0.323712 0.339751 0.38635 0.27332 0.295709 0.306755 0.339713 0.323712 0.347141 0.38635 0.428257 0.295709 0.31185 0.339713 0.365164 0.347141 0.355784 0.428257 0.445291 0.31185 0.318812 0.365164 0.376304 0.355784 0.34683 0.445291 0.428049 0.318812 0.311823 0.376304 0.365105 0.34683 0.325067 0.428049 0.38832 0.311823 0.29552 0.365105 0.34034 0.181313 0.202107 0.187442 0.210719 0.175768 0.194497 0.181332 0.202122 0.202107 0.227421 0.210719 0.239898 0.194497 0.216721 0.202122 0.227425 0.227421 0.25825 0.239898 0.276947 0.216721 0.242935 0.227425 0.258222 0.25825 0.295697 0.276947 0.323502 0.242935 0.273309 0.258222 0.295651 0.295697 0.339751 0.323502 0.386383 0.273309 0.306755 0.295651 0.339676 0.339751 0.38635 0.386383 0.458779 0.306755 0.339713 0.339676 0.386339 0.187442 0.210719 0.191413 0.216461 0.181332 0.202122 0.184922 0.207137 0.210719 0.239898 0.216461 0.248414 0.202122 0.227425 0.207137 0.234643 0.239898 0.276947 0.248414 0.290675 0.227425 0.258222 0.234643 0.269086 0.276947 0.323502 0.290675 0.347041 0.258222 0.295651 0.269086 0.311687 0.323502 0.386383 0.347041 0.428072 0.295651 0.339676 0.311687 0.365103 0.191413 0.216461 0.192796 0.218474 0.184922 0.207137 0.186165 0.208889 0.216461 0.248414 0.218474 0.251463 0.207137 0.234643 0.208889 0.237223 0.248414 0.290675 0.251463 0.295565 0.234643 0.269086 0.237223 0.272881 0.290675 0.347041 0.295565 0.355669 0.269086 0.311687 0.272881 0.318612 0.347041 0.428072 0.355669 0.444534 0.311687 0.365103 0.318612 0.376277 0.192796 0.218474 0.191413 0.21646 0.186165 0.208889 0.184922 0.207136 0.218474 0.251463 0.21646 0.248413 0.208889 0.237223 0.207136 0.234643 0.251463 0.295565 0.248413 0.290673 0.237223 0.272881 0.234643 0.269084 0.295565 0.355669 0.290673 0.347037 0.272881 0.318612 0.269084 0.311685 0.355669 0.444534 0.347037 0.428063 0.318612 0.376277 0.311685 0.365075 0.191413 0.21646 0.187442 0.210719 0.184922 0.207136 0.181332 0.202122 0.21646 0.248413 0.210719 0.239897 0.207136 0.234643 0.202122 0.227424 0.248413 0.290673 0.239897 0.276945 0.234643 0.269084 0.227424 0.25822 0.290673 0.347037 0.276945 0.323499 0.269084 0.311685 0.25822 0.295646 0.347037 0.428063 0.323499 0.386372 0.311685 0.365075 0.295646 0.339675 0.187442 0.210719 0.181313 0.202107 0.181332 0.202122 0.175768 0.194497 0.210719 0.239897 0.202107 0.22742 0.202122 0.227424 0.194497 0.21672 0.239897 0.276945 0.22742 0.258249 0.227424 0.25822 0.21672 0.242934 0.276945 0.323499 0.258249 0.295696 0.25822 0.295646 0.242934 0.273309 0.323499 0.386372 0.295696 0.339753 0.295646 0.339675 0.273309 0.306752 0.386372 0.45879 0.339753 0.386365 0.339675 0.38626 0.306752 0.339735 0.181313 0.202107 0.173619 0.191611 0.175768 0.194497 0.168731 0.185088 0.202107 0.22742 0.191611 0.212824 0.194497 0.21672 0.185088 0.203987 0.22742 0.258249 0.212824 0.237519 0.21672 0.242934 0.203987 0.225417 0.258249 0.295696 0.237519 0.265607 0.242934 0.273309 0.225417 0.248992 0.295696 0.339753 0.265607 0.295747 0.273309 0.306752 0.248992 0.273327 0.339753 0.386365 0.295747 0.32373 0.306752 0.339735 0.273327 0.295722 0.386365 0.428315 0.32373 0.347171 0.339735 0.3652 0.295722 0.311874 0.428315 0.445403 0.347171 0.355824 0.3652 0.376274 0.311874 0.31884 0.445403 0.42812 0.355824 0.346868 0.376274 0.365138 0.31884 0.311855 0.42812 0.388351 0.346868 0.325102 0.365138 0.340399 0.311855 0.295547 0.173619 0.191611 0.164719 0.180262 0.168731 0.185088 0.160541 0.1748 0.191611 0.212824 0.180262 0.197606 0.185088 0.203987 0.1748 0.190472 0.212824 0.237519 0.197606 0.2169 0.203987 0.225417 0.190472 0.20757 0.237519 0.265607 0.2169 0.23759 0.225417 0.248992 0.20757 0.225499 0.265607 0.295747 0.23759 0.258253 0.248992 0.273327 0.225499 0.242987 0.295747 0.32373 0.258253 0.276454 0.273327 0.295722 0.242987 0.258204 0.32373 0.347171 0.276454 0.29058 0.295722 0.311874 0.258204 0.26893 0.347171 0.355824 0.29058 0.295513 0.311874 0.31884 0.26893 0.272622 0.355824 0.346868 0.295513 0.289246 0.31884 0.311855 0.272622 0.268895 0.346868 0.325102 0.289246 0.275456 0.311855 0.295547 0.268895 0.257321 0.160541 0.1748 0.168731 0.185089 0.155172 0.167903 0.162513 0.17696 0.1748 0.190471 0.185089 0.203987 0.167903 0.181636 0.17696 0.193246 0.190471 0.20757 0.203987 0.225417 0.181636 0.196274 0.193246 0.211158 0.20757 0.225497 0.225417 0.248991 0.196274 0.211227 0.211158 0.230142 0.225497 0.242981 0.248991 0.27332 0.211227 0.225465 0.230142 0.248965 0.242981 0.258191 0.27332 0.295709 0.225465 0.237519 0.248965 0.265522 0.258191 0.268912 0.295709 0.31185 0.237519 0.245713 0.265522 0.27721 0.268912 0.272598 0.31185 0.318812 0.245713 0.248659 0.27721 0.281409 0.272598 0.26887 0.318812 0.311823 0.248659 0.245576 0.281409 0.277067 0.26887 0.257297 0.311823 0.29552 0.245576 0.236795 0.277067 0.265352 0.168731 0.185089 0.175768 0.194497 0.162513 0.17696 0.168776 0.18513 0.185089 0.203987 0.194497 0.216721 0.17696 0.193246 0.18513 0.203977 0.203987 0.225417 0.216721 0.242935 0.193246 0.211158 0.203977 0.225381 0.225417 0.248991 0.242935 0.273309 0.211158 0.230142 0.225381 0.248944 0.248991 0.27332 0.273309 0.306755 0.230142 0.248965 0.248944 0.27328 0.27332 0.295709 0.306755 0.339713 0.248965 0.265522 0.27328 0.295625 0.295709 0.31185 0.339713 0.365164 0.265522 0.27721 0.295625 0.311647 0.31185 0.318812 0.365164 0.376304 0.27721 0.281409 0.311647 0.318617 0.318812 0.311823 0.376304 0.365105 0.281409 0.277067 0.318617 0.311685 0.311823 0.29552 0.365105 0.34034 0.277067 0.265352 0.311685 0.295362 0.175768 0.194497 0.181332 0.202122 0.168776 0.18513 0.173688 0.191674 0.194497 0.216721 0.202122 0.227425 0.18513 0.203977 0.191674 0.212817 0.216721 0.242935 0.227425 0.258222 0.203977 0.225381 0.212817 0.237468 0.242935 0.273309 0.258222 0.295651 0.225381 0.248944 0.237468 0.265504 0.273309 0.306755 0.295651 0.339676 0.248944 0.27328 0.265504 0.295613 0.306755 0.339713 0.339676 0.386339 0.27328 0.295625 0.295613 0.323387 0.339713 0.365164 0.386339 0.427868 0.295625 0.311647 0.323387 0.346978 0.365164 0.376304 0.427868 0.444187 0.311647 0.318617 0.346978 0.355627 0.376304 0.365105 0.444187 0.428033 0.318617 0.311685 0.355627 0.347032 0.365105 0.34034 0.428033 0.388291 0.311685 0.295362 0.347032 0.324528 0.181332 0.202122 0.184922 0.207137 0.173688 0.191674 0.176835 0.195937 0.202122 0.227425 0.207137 0.234643 0.191674 0.212817 0.195937 0.2187 0.227425 0.258222 0.234643 0.269086 0.212817 0.237468 0.2187 0.245696 0.258222 0.295651 0.269086 0.311687 0.237468 0.265504 0.245696 0.277214 0.295651 0.339676 0.311687 0.365103 0.265504 0.295613 0.277214 0.311635 0.339676 0.386339 0.365103 0.427834 0.295613 0.323387 0.311635 0.346966 0.386339 0.427868 0.427834 0.482118 0.323387 0.346978 0.346966 0.374732 0.427868 0.444187 0.482118 0.505349 0.346978 0.355627 0.374732 0.385644 0.444187 0.428033 0.505349 0.480711 0.355627 0.347032 0.385644 0.374549 0.428033 0.388291 0.480711 0.429891 0.347032 0.324528 0.374549 0.346693 0.184922 0.207137 0.186165 0.208889 0.176835 0.195937 0.17792 0.197421 0.207137 0.234643 0.208889 0.237223 0.195937 0.2187 0.197421 0.220764 0.234643 0.269086 0.237223 0.272881 0.2187 0.245696 0.220764 0.248666 0.269086 0.311687 0.272881 0.318612 0.245696 0.277214 0.248666 0.281455 0.311687 0.365103 0.318612 0.376277 0.277214 0.311635 0.281455 0.318565 0.365103 0.427834 0.376277 0.444027 0.311635 0.346966 0.318565 0.35561 0.427834 0.482118 0.444027 0.505232 0.346966 0.374732 0.35561 0.385615 0.482118 0.505349 0.505232 0.530133 0.374732 0.385644 0.385615 0.397498 0.505349 0.480711 0.530133 0.500378 0.385644 0.374549 0.397498 0.385169 0.480711 0.429891 0.500378 0.448465 0.374549 0.346693 0.385169 0.355089 0.186165 0.208889 0.184922 0.207136 0.17792 0.197421 0.176835 0.195936 0.208889 0.237223 0.207136 0.234643 0.197421 0.220764 0.195936 0.2187 0.237223 0.272881 0.234643 0.269084 0.220764 0.248666 0.2187 0.245695 0.272881 0.318612 0.269084 0.311685 0.248666 0.281455 0.245695 0.277211 0.318612 0.376277 0.311685 0.365075 0.281455 0.318565 0.277211 0.311629 0.376277 0.444027 0.365075 0.427965 0.318565 0.35561 0.311629 0.346926 0.444027 0.505232 0.427965 0.480533 0.35561 0.385615 0.346926 0.374501 0.505232 0.530133 0.480533 0.500796 0.385615 0.397498 0.374501 0.385194 0.530133 0.500378 0.500796 0.478812 0.397498 0.385169 0.385194 0.374292 0.500378 0.448465 0.478812 0.430335 0.385169 0.355089 0.374292 0.346624 0.184922 0.207136 0.181332 0.202122 0.176835 0.195936 0.173687 0.191674 0.207136 0.234643 0.202122 0.227424 0.195936 0.2187 0.191674 0.212816 0.234643 0.269084 0.227424 0.25822 0.2187 0.245695 0.212816 0.237467 0.269084 0.311685 0.25822 0.295646 0.245695 0.277211 0.237467 0.265501 0.311685 0.365075 0.295646 0.339675 0.277211 0.311629 0.265501 0.295603 0.365075 0.427965 0.339675 0.38626 0.311629 0.346926 0.295603 0.323376 0.427965 0.480533 0.38626 0.428188 0.346926 0.374501 0.323376 0.346948 0.480533 0.500796 0.428188 0.445259 0.374501 0.385194 0.346948 0.3556 0.500796 0.478812 0.445259 0.428448 0.385194 0.374292 0.3556 0.347003 0.478812 0.430335 0.428448 0.38808 0.374292 0.346624 0.347003 0.324474 0.181332 0.202122 0.175768 0.194497 0.173687 0.191674 0.168776 0.18513 0.202122 0.227424 0.194497 0.21672 0.191674 0.212816 0.18513 0.203976 0.227424 0.25822 0.21672 0.242934 0.212816 0.237467 0.203976 0.22538 0.25822 