<?xml version="1.0" ?> 
<!-- 
# vtk DataFile Version 3.0
#This file was generated by the deal.II library on 16:51:11 at 2019/11/27
-->
<VTKFile type="UnstructuredGrid" version="0.1" byte_order="LittleEndian">
<UnstructuredGrid>
<Piece NumberOfPoints="28328" NumberOfCells="3541" >
  <Points>
    <DataArray type="Float32" NumberOfComponents="3" format="ascii">
-50 -50 0
-40 -50 0
-50 -40 0
-40 -40 0
-50 -50 10
-40 -50 10
-50 -40 10
-40 -40 10
-40 -50 0
-30 -50 0
-40 -40 0
-30 -40 0
-40 -50 10
-30 -50 10
-40 -40 10
-30 -40 10
-30 -50 0
-20 -50 0
-30 -40 0
-20 -40 0
-30 -50 10
-20 -50 10
-30 -40 10
-20 -40 10
-20 -50 0
-10 -50 0
-20 -40 0
-10 -40 0
-20 -50 10
-10 -50 10
-20 -40 10
-10 -40 10
-10 -50 0
0 -50 0
-10 -40 0
0 -40 0
-10 -50 10
0 -50 10
-10 -40 10
0 -40 10
0 -50 0
10 -50 0
0 -40 0
10 -40 0
0 -50 10
10 -50 10
0 -40 10
10 -40 10
10 -50 0
20 -50 0
10 -40 0
20 -40 0
10 -50 10
20 -50 10
10 -40 10
20 -40 10
20 -50 0
30 -50 0
20 -40 0
30 -40 0
20 -50 10
30 -50 10
20 -40 10
30 -40 10
30 -50 0
40 -50 0
30 -40 0
40 -40 0
30 -50 10
40 -50 10
30 -40 10
40 -40 10
40 -50 0
50 -50 0
40 -40 0
50 -40 0
40 -50 10
50 -50 10
40 -40 10
50 -40 10
-50 -40 0
-40 -40 0
-50 -30 0
-40 -30 0
-50 -40 10
-40 -40 10
-50 -30 10
-40 -30 10
-40 -40 0
-30 -40 0
-40 -30 0
-30 -30 0
-40 -40 10
-30 -40 10
-40 -30 10
-30 -30 10
-30 -40 0
-20 -40 0
-30 -30 0
-20 -30 0
-30 -40 10
-20 -40 10
-30 -30 10
-20 -30 10
-20 -40 0
-10 -40 0
-20 -30 0
-10 -30 0
-20 -40 10
-10 -40 10
-20 -30 10
-10 -30 10
-10 -40 0
0 -40 0
-10 -30 0
0 -30 0
-10 -40 10
0 -40 10
-10 -30 10
0 -30 10
0 -40 0
10 -40 0
0 -30 0
10 -30 0
0 -40 10
10 -40 10
0 -30 10
10 -30 10
10 -40 0
20 -40 0
10 -30 0
20 -30 0
10 -40 10
20 -40 10
10 -30 10
20 -30 10
20 -40 0
30 -40 0
20 -30 0
30 -30 0
20 -40 10
30 -40 10
20 -30 10
30 -30 10
30 -40 0
40 -40 0
30 -30 0
40 -30 0
30 -40 10
40 -40 10
30 -30 10
40 -30 10
40 -40 0
50 -40 0
40 -30 0
50 -30 0
40 -40 10
50 -40 10
40 -30 10
50 -30 10
-50 -30 0
-40 -30 0
-50 -20 0
-40 -20 0
-50 -30 10
-40 -30 10
-50 -20 10
-40 -20 10
-40 -30 0
-30 -30 0
-40 -20 0
-30 -20 0
-40 -30 10
-30 -30 10
-40 -20 10
-30 -20 10
-30 -30 0
-20 -30 0
-30 -20 0
-20 -20 0
-30 -30 10
-20 -30 10
-30 -20 10
-20 -20 10
-20 -30 0
-10 -30 0
-20 -20 0
-10 -20 0
-20 -30 10
-10 -30 10
-20 -20 10
-10 -20 10
-10 -30 0
0 -30 0
-10 -20 0
0 -20 0
-10 -30 10
0 -30 10
-10 -20 10
0 -20 10
0 -30 0
10 -30 0
0 -20 0
10 -20 0
0 -30 10
10 -30 10
0 -20 10
10 -20 10
-50 -20 0
-40 -20 0
-50 -10 0
-40 -10 0
-50 -20 10
-40 -20 10
-50 -10 10
-40 -10 10
-40 -20 0
-30 -20 0
-40 -10 0
-30 -10 0
-40 -20 10
-30 -20 10
-40 -10 10
-30 -10 10
-30 -20 0
-20 -20 0
-30 -10 0
-20 -10 0
-30 -20 10
-20 -20 10
-30 -10 10
-20 -10 10
-20 -20 0
-10 -20 0
-20 -10 0
-10 -10 0
-20 -20 10
-10 -20 10
-20 -10 10
-10 -10 10
-10 -20 0
0 -20 0
-10 -10 0
0 -10 0
-10 -20 10
0 -20 10
-10 -10 10
0 -10 10
0 -20 0
10 -20 0
0 -10 0
10 -10 0
0 -20 10
10 -20 10
0 -10 10
10 -10 10
-50 -10 0
-40 -10 0
-50 0 0
-40 0 0
-50 -10 10
-40 -10 10
-50 0 10
-40 0 10
-40 -10 0
-30 -10 0
-40 0 0
-30 0 0
-40 -10 10
-30 -10 10
-40 0 10
-30 0 10
-30 -10 0
-20 -10 0
-30 0 0
-20 0 0
-30 -10 10
-20 -10 10
-30 0 10
-20 0 10
-20 -10 0
-10 -10 0
-20 0 0
-10 0 0
-20 -10 10
-10 -10 10
-20 0 10
-10 0 10
-50 0 0
-40 0 0
-50 10 0
-40 10 0
-50 0 10
-40 0 10
-50 10 10
-40 10 10
-40 0 0
-30 0 0
-40 10 0
-30 10 0
-40 0 10
-30 0 10
-40 10 10
-30 10 10
-30 0 0
-20 0 0
-30 10 0
-20 10 0
-30 0 10
-20 0 10
-30 10 10
-20 10 10
-20 0 0
-10 0 0
-20 10 0
-10 10 0
-20 0 10
-10 0 10
-20 10 10
-10 10 10
-50 10 0
-40 10 0
-50 20 0
-40 20 0
-50 10 10
-40 10 10
-50 20 10
-40 20 10
-40 10 0
-30 10 0
-40 20 0
-30 20 0
-40 10 10
-30 10 10
-40 20 10
-30 20 10
-30 10 0
-20 10 0
-30 20 0
-20 20 0
-30 10 10
-20 10 10
-30 20 10
-20 20 10
-20 10 0
-10 10 0
-20 20 0
-10 20 0
-20 10 10
-10 10 10
-20 20 10
-10 20 10
-10 10 0
0 10 0
-10 20 0
0 20 0
-10 10 10
0 10 10
-10 20 10
0 20 10
0 10 0
10 10 0
0 20 0
10 20 0
0 10 10
10 10 10
0 20 10
10 20 10
-50 20 0
-40 20 0
-50 30 0
-40 30 0
-50 20 10
-40 20 10
-50 30 10
-40 30 10
-40 20 0
-30 20 0
-40 30 0
-30 30 0
-40 20 10
-30 20 10
-40 30 10
-30 30 10
-30 20 0
-20 20 0
-30 30 0
-20 30 0
-30 20 10
-20 20 10
-30 30 10
-20 30 10
-20 20 0
-10 20 0
-20 30 0
-10 30 0
-20 20 10
-10 20 10
-20 30 10
-10 30 10
-10 20 0
0 20 0
-10 30 0
0 30 0
-10 20 10
0 20 10
-10 30 10
0 30 10
0 20 0
10 20 0
0 30 0
10 30 0
0 20 10
10 20 10
0 30 10
10 30 10
-50 30 0
-40 30 0
-50 40 0
-40 40 0
-50 30 10
-40 30 10
-50 40 10
-40 40 10
-40 30 0
-30 30 0
-40 40 0
-30 40 0
-40 30 10
-30 30 10
-40 40 10
-30 40 10
-30 30 0
-20 30 0
-30 40 0
-20 40 0
-30 30 10
-20 30 10
-30 40 10
-20 40 10
-20 30 0
-10 30 0
-20 40 0
-10 40 0
-20 30 10
-10 30 10
-20 40 10
-10 40 10
-10 30 0
0 30 0
-10 40 0
0 40 0
-10 30 10
0 30 10
-10 40 10
0 40 10
0 30 0
10 30 0
0 40 0
10 40 0
0 30 10
10 30 10
0 40 10
10 40 10
10 30 0
20 30 0
10 40 0
20 40 0
10 30 10
20 30 10
10 40 10
20 40 10
20 30 0
30 30 0
20 40 0
30 40 0
20 30 10
30 30 10
20 40 10
30 40 10
30 30 0
40 30 0
30 40 0
40 40 0
30 30 10
40 30 10
30 40 10
40 40 10
40 30 0
50 30 0
40 40 0
50 40 0
40 30 10
50 30 10
40 40 10
50 40 10
-50 40 0
-40 40 0
-50 50 0
-40 50 0
-50 40 10
-40 40 10
-50 50 10
-40 50 10
-40 40 0
-30 40 0
-40 50 0
-30 50 0
-40 40 10
-30 40 10
-40 50 10
-30 50 10
-30 40 0
-20 40 0
-30 50 0
-20 50 0
-30 40 10
-20 40 10
-30 50 10
-20 50 10
-20 40 0
-10 40 0
-20 50 0
-10 50 0
-20 40 10
-10 40 10
-20 50 10
-10 50 10
-10 40 0
0 40 0
-10 50 0
0 50 0
-10 40 10
0 40 10
-10 50 10
0 50 10
0 40 0
10 40 0
0 50 0
10 50 0
0 40 10
10 40 10
0 50 10
10 50 10
10 40 0
20 40 0
10 50 0
20 50 0
10 40 10
20 40 10
10 50 10
20 50 10
20 40 0
30 40 0
20 50 0
30 50 0
20 40 10
30 40 10
20 50 10
30 50 10
30 40 0
40 40 0
30 50 0
40 50 0
30 40 10
40 40 10
30 50 10
40 50 10
40 40 0
50 40 0
40 50 0
50 50 0
40 40 10
50 40 10
40 50 10
50 50 10
-50 -50 10
-40 -50 10
-50 -40 10
-40 -40 10
-50 -50 20
-40 -50 20
-50 -40 20
-40 -40 20
-40 -50 10
-30 -50 10
-40 -40 10
-30 -40 10
-40 -50 20
-30 -50 20
-40 -40 20
-30 -40 20
-30 -50 10
-20 -50 10
-30 -40 10
-20 -40 10
-30 -50 20
-20 -50 20
-30 -40 20
-20 -40 20
-20 -50 10
-10 -50 10
-20 -40 10
-10 -40 10
-20 -50 20
-10 -50 20
-20 -40 20
-10 -40 20
-10 -50 10
0 -50 10
-10 -40 10
0 -40 10
-10 -50 20
0 -50 20
-10 -40 20
0 -40 20
0 -50 10
10 -50 10
0 -40 10
10 -40 10
0 -50 20
10 -50 20
0 -40 20
10 -40 20
10 -50 10
20 -50 10
10 -40 10
20 -40 10
10 -50 20
20 -50 20
10 -40 20
20 -40 20
20 -50 10
30 -50 10
20 -40 10
30 -40 10
20 -50 20
30 -50 20
20 -40 20
30 -40 20
30 -50 10
40 -50 10
30 -40 10
40 -40 10
30 -50 20
40 -50 20
30 -40 20
40 -40 20
40 -50 10
50 -50 10
40 -40 10
50 -40 10
40 -50 20
50 -50 20
40 -40 20
50 -40 20
-50 -40 10
-40 -40 10
-50 -30 10
-40 -30 10
-50 -40 20
-40 -40 20
-50 -30 20
-40 -30 20
-40 -40 10
-30 -40 10
-40 -30 10
-30 -30 10
-40 -40 20
-30 -40 20
-40 -30 20
-30 -30 20
-30 -40 10
-20 -40 10
-30 -30 10
-20 -30 10
-30 -40 20
-20 -40 20
-30 -30 20
-20 -30 20
-20 -40 10
-10 -40 10
-20 -30 10
-10 -30 10
-20 -40 20
-10 -40 20
-20 -30 20
-10 -30 20
-10 -40 10
0 -40 10
-10 -30 10
0 -30 10
-10 -40 20
0 -40 20
-10 -30 20
0 -30 20
0 -40 10
10 -40 10
0 -30 10
10 -30 10
0 -40 20
10 -40 20
0 -30 20
10 -30 20
10 -40 10
20 -40 10
10 -30 10
20 -30 10
10 -40 20
20 -40 20
10 -30 20
20 -30 20
20 -40 10
30 -40 10
20 -30 10
30 -30 10
20 -40 20
30 -40 20
20 -30 20
30 -30 20
30 -40 10
40 -40 10
30 -30 10
40 -30 10
30 -40 20
40 -40 20
30 -30 20
40 -30 20
40 -40 10
50 -40 10
40 -30 10
50 -30 10
40 -40 20
50 -40 20
40 -30 20
50 -30 20
-50 -30 10
-40 -30 10
-50 -20 10
-40 -20 10
-50 -30 20
-40 -30 20
-50 -20 20
-40 -20 20
-40 -30 10
-30 -30 10
-40 -20 10
-30 -20 10
-40 -30 20
-30 -30 20
-40 -20 20
-30 -20 20
-30 -30 10
-20 -30 10
-30 -20 10
-20 -20 10
-30 -30 20
-20 -30 20
-30 -20 20
-20 -20 20
-20 -30 10
-10 -30 10
-20 -20 10
-10 -20 10
-20 -30 20
-10 -30 20
-20 -20 20
-10 -20 20
-10 -30 10
0 -30 10
-10 -20 10
0 -20 10
-10 -30 20
0 -30 20
-10 -20 20
0 -20 20
0 -30 10
10 -30 10
0 -20 10
10 -20 10
0 -30 20
10 -30 20
0 -20 20
10 -20 20
-50 -20 10
-40 -20 10
-50 -10 10
-40 -10 10
-50 -20 20
-40 -20 20
-50 -10 20
-40 -10 20
-40 -20 10
-30 -20 10
-40 -10 10
-30 -10 10
-40 -20 20
-30 -20 20
-40 -10 20
-30 -10 20
-30 -20 10
-20 -20 10
-30 -10 10
-20 -10 10
-30 -20 20
-20 -20 20
-30 -10 20
-20 -10 20
-20 -20 10
-10 -20 10
-20 -10 10
-10 -10 10
-20 -20 20
-10 -20 20
-20 -10 20
-10 -10 20
-10 -20 10
0 -20 10
-10 -10 10
0 -10 10
-10 -20 20
0 -20 20
-10 -10 20
0 -10 20
0 -20 10
10 -20 10
0 -10 10
10 -10 10
0 -20 20
10 -20 20
0 -10 20
10 -10 20
-50 -10 10
-40 -10 10
-50 0 10
-40 0 10
-50 -10 20
-40 -10 20
-50 0 20
-40 0 20
-40 -10 10
-30 -10 10
-40 0 10
-30 0 10
-40 -10 20
-30 -10 20
-40 0 20
-30 0 20
-30 -10 10
-20 -10 10
-30 0 10
-20 0 10
-30 -10 20
-20 -10 20
-30 0 20
-20 0 20
-20 -10 10
-10 -10 10
-20 0 10
-10 0 10
-20 -10 20
-10 -10 20
-20 0 20
-10 0 20
-10 -10 10
0 -10 10
-10 0 10
0 0 10
-10 -10 20
0 -10 20
-10 0 20
0 0 20
0 -10 10
10 -10 10
0 0 10
10 0 10
0 -10 20
10 -10 20
0 0 20
10 0 20
-50 0 10
-40 0 10
-50 10 10
-40 10 10
-50 0 20
-40 0 20
-50 10 20
-40 10 20
-40 0 10
-30 0 10
-40 10 10
-30 10 10
-40 0 20
-30 0 20
-40 10 20
-30 10 20
-30 0 10
-20 0 10
-30 10 10
-20 10 10
-30 0 20
-20 0 20
-30 10 20
-20 10 20
-20 0 10
-10 0 10
-20 10 10
-10 10 10
-20 0 20
-10 0 20
-20 10 20
-10 10 20
-10 0 10
0 0 10
-10 10 10
0 10 10
-10 0 20
0 0 20
-10 10 20
0 10 20
0 0 10
10 0 10
0 10 10
10 10 10
0 0 20
10 0 20
0 10 20
10 10 20
-50 10 10
-40 10 10
-50 20 10
-40 20 10
-50 10 20
-40 10 20
-50 20 20
-40 20 20
-40 10 10
-30 10 10
-40 20 10
-30 20 10
-40 10 20
-30 10 20
-40 20 20
-30 20 20
-30 10 10
-20 10 10
-30 20 10
-20 20 10
-30 10 20
-20 10 20
-30 20 20
-20 20 20
-20 10 10
-10 10 10
-20 20 10
-10 20 10
-20 10 20
-10 10 20
-20 20 20
-10 20 20
-10 10 10
0 10 10
-10 20 10
0 20 10
-10 10 20
0 10 20
-10 20 20
0 20 20
0 10 10
10 10 10
0 20 10
10 20 10
0 10 20
10 10 20
0 20 20
10 20 20
-50 20 10
-40 20 10
-50 30 10
-40 30 10
-50 20 20
-40 20 20
-50 30 20
-40 30 20
-40 20 10
-30 20 10
-40 30 10
-30 30 10
-40 20 20
-30 20 20
-40 30 20
-30 30 20
-30 20 10
-20 20 10
[...]
  <PointData Scalars="scalars">
    <DataArray type="Float32" Name="u" format="ascii">
0.154284 0.168699 0.161529 0.177901 0.153575 0.167769 0.160713 0.176812 0.168699 0.185112 0.177901 0.197463 0.167769 0.183888 0.176812 0.195973 0.185112 0.203982 0.197463 0.220814 0.183888 0.202345 0.195973 0.21875 0.203982 0.225368 0.220814 0.248779 0.202345 0.223179 0.21875 0.245808 0.225368 0.248885 0.248779 0.281614 0.223179 0.245885 0.245808 0.277365 0.248885 0.27278 0.281614 0.319011 0.245885 0.26908 0.277365 0.312014 0.27278 0.295751 0.319011 0.355991 0.26908 0.290709 0.312014 0.347324 0.295751 0.312371 0.355991 0.3857 0.290709 0.306502 0.347324 0.375127 0.312371 0.318423 0.3857 0.397741 0.306502 0.312137 0.375127 0.385714 0.318423 0.310714 0.397741 0.385414 0.312137 0.304854 0.385714 0.374212 0.161529 0.177901 0.167692 0.18623 0.160713 0.176812 0.166777 0.184978 0.177901 0.197463 0.18623 0.208994 0.176812 0.195973 0.184978 0.207238 0.197463 0.220814 0.208994 0.237317 0.195973 0.21875 0.207238 0.23471 0.220814 0.248779 0.237317 0.272679 0.21875 0.245808 0.23471 0.268888 0.248779 0.281614 0.272679 0.318982 0.245808 0.277365 0.268888 0.312 0.281614 0.319011 0.318982 0.376625 0.277365 0.312014 0.312 0.365421 0.319011 0.355991 0.376625 0.444286 0.312014 0.347324 0.365421 0.427945 0.355991 0.3857 0.444286 0.506394 0.347324 0.375127 0.427945 0.483616 0.3857 0.397741 0.506394 0.530655 0.375127 0.385714 0.483616 0.504052 0.397741 0.385414 0.530655 0.503833 0.385714 0.374212 0.504052 0.478404 0.167692 0.18623 0.172533 0.192964 0.166777 0.184978 0.171538 0.191554 0.18623 0.208994 0.192964 0.218635 0.184978 0.207238 0.191554 0.216537 0.208994 0.237317 0.218635 0.251719 0.207238 0.23471 0.216537 0.248991 0.237317 0.272679 0.251719 0.295442 0.23471 0.268888 0.248991 0.290423 0.272679 0.318982 0.295442 0.356 0.268888 0.312 0.290423 0.347374 0.318982 0.376625 0.356 0.444992 0.312 0.365421 0.347374 0.428248 0.172533 0.192964 0.175664 0.197356 0.171538 0.191554 0.17459 0.1959 0.192964 0.218635 0.197356 0.225684 0.191554 0.216537 0.1959 0.222877 0.218635 0.251719 0.225684 0.2614 0.216537 0.248991 0.222877 0.257768 0.251719 0.295442 0.2614 0.312248 0.248991 0.290423 0.257768 0.305814 0.295442 0.356 0.312248 0.382938 0.290423 0.347374 0.305814 0.374447 0.356 0.444992 0.382938 0.50317 0.347374 0.428248 0.374447 0.482351 0.175664 0.197356 0.176721 0.198995 0.17459 0.1959 0.175664 0.197357 0.197356 0.225684 0.198995 0.22763 0.1959 0.222877 0.197357 0.225684 0.225684 0.2614 0.22763 0.264977 0.222877 0.257768 0.225684 0.261375 0.2614 0.312248 0.264977 0.32056 0.257768 0.305814 0.261375 0.311813 0.176721 0.198995 0.175664 0.197356 0.175664 0.197357 0.17459 0.1959 0.198995 0.22763 0.197356 0.225684 0.197357 0.225684 0.1959 0.222876 0.22763 0.264977 0.225684 0.261401 0.225684 0.261375 0.222876 0.257769 0.264977 0.32056 0.261401 0.312248 0.261375 0.311813 0.257769 0.305814 0.175664 0.197356 0.172533 0.192964 0.17459 0.1959 0.171538 0.191553 0.197356 0.225684 0.192964 0.218635 0.1959 0.222876 0.191553 0.216538 0.225684 0.261401 0.218635 0.251722 0.222876 0.257769 0.216538 0.24899 0.261401 0.312248 0.251722 0.295451 0.257769 0.305814 0.24899 0.290426 0.312248 0.382938 0.295451 0.355982 0.305814 0.374443 0.290426 0.347409 0.382938 0.503149 0.355982 0.44508 0.374443 0.482361 0.347409 0.428097 0.172533 0.192964 0.167691 0.18623 0.171538 0.191553 0.166776 0.184977 0.192964 0.218635 0.18623 0.208995 0.191553 0.216538 0.184977 0.207237 0.218635 0.251722 0.208995 0.237313 0.216538 0.24899 0.207237 0.23472 0.251722 0.295451 0.237313 0.272744 0.24899 0.290426 0.23472 0.268832 0.295451 0.355982 0.272744 0.318667 0.290426 0.347409 0.268832 0.312559 0.355982 0.44508 0.318667 0.376157 0.347409 0.428097 0.312559 0.36639 0.167691 0.18623 0.161528 0.177901 0.166776 0.184977 0.160712 0.176812 0.18623 0.208995 0.177901 0.197463 0.184977 0.207237 0.176812 0.195973 0.208995 0.237313 0.197463 0.220818 0.207237 0.23472 0.195973 0.218748 0.237313 0.272744 0.220818 0.248784 0.23472 0.268832 0.218748 0.245833 0.272744 0.318667 0.248784 0.281564 0.268832 0.312559 0.245833 0.277314 0.318667 0.376157 0.281564 0.318687 0.312559 0.36639 0.277314 0.312586 0.376157 0.444375 0.318687 0.355974 0.36639 0.427791 0.312586 0.34736 0.444375 0.506378 0.355974 0.385699 0.427791 0.483629 0.34736 0.375126 0.506378 0.530672 0.385699 0.397744 0.483629 0.504056 0.375126 0.385712 0.530672 0.503859 0.397744 0.385419 0.504056 0.478416 0.385712 0.374212 0.161528 0.177901 0.154284 0.168699 0.160712 0.176812 0.153574 0.167769 0.177901 0.197463 0.168699 0.185113 0.176812 0.195973 0.167769 0.183887 0.197463 0.220818 0.185113 0.203984 0.195973 0.218748 0.183887 0.202348 0.220818 0.248784 0.203984 0.225368 0.218748 0.245833 0.202348 0.223168 0.248784 0.281564 0.225368 0.24889 0.245833 0.277314 0.223168 0.245932 0.281564 0.318687 0.24889 0.272905 0.277314 0.312586 0.245932 0.268969 0.318687 0.355974 0.272905 0.295765 0.312586 0.34736 0.268969 0.290713 0.355974 0.385699 0.295765 0.312371 0.34736 0.375126 0.290713 0.3065 0.385699 0.397744 0.312371 0.318423 0.375126 0.385712 0.3065 0.312134 0.397744 0.385419 0.318423 0.310714 0.385712 0.374212 0.312134 0.304853 0.153575 0.167769 0.160713 0.176812 0.151503 0.165068 0.158336 0.173657 0.167769 0.183888 0.176812 0.195973 0.165068 0.180349 0.173657 0.191702 0.183888 0.202345 0.195973 0.21875 0.180349 0.197662 0.191702 0.212871 0.202345 0.223179 0.21875 0.245808 0.197662 0.216942 0.212871 0.23755 0.223179 0.245885 0.245808 0.277365 0.216942 0.237635 0.23755 0.26563 0.245885 0.26908 0.277365 0.312014 0.237635 0.258291 0.26563 0.295835 0.26908 0.290709 0.312014 0.347324 0.258291 0.276523 0.295835 0.323811 0.290709 0.306502 0.347324 0.375127 0.276523 0.290609 0.323811 0.347273 0.306502 0.312137 0.375127 0.385714 0.290609 0.295453 0.347273 0.35579 0.312137 0.304854 0.385714 0.374212 0.295453 0.289402 0.35579 0.346931 0.160713 0.176812 0.166777 0.184978 0.158336 0.173657 0.16412 0.181372 0.176812 0.195973 0.184978 0.207238 0.173657 0.191702 0.181372 0.202183 0.195973 0.21875 0.207238 0.23471 0.191702 0.212871 0.202183 0.227429 0.21875 0.245808 0.23471 0.268888 0.212871 0.23755 0.227429 0.258212 0.245808 0.277365 0.268888 0.312 0.23755 0.26563 0.258212 0.295807 0.277365 0.312014 0.312 0.365421 0.26563 0.295835 0.295807 0.339828 0.312014 0.347324 0.365421 0.427945 0.295835 0.323811 0.339828 0.386924 0.347324 0.375127 0.427945 0.483616 0.323811 0.347273 0.386924 0.427707 0.375127 0.385714 0.483616 0.504052 0.347273 0.35579 0.427707 0.444753 0.385714 0.374212 0.504052 0.478404 0.35579 0.346931 0.444753 0.429806 0.166777 0.184978 0.171538 0.191554 0.16412 0.181372 0.168646 0.187529 0.184978 0.207238 0.191554 0.216537 0.181372 0.202183 0.187529 0.210836 0.207238 0.23471 0.216537 0.248991 0.202183 0.227429 0.210836 0.239967 0.23471 0.268888 0.248991 0.290423 0.227429 0.258212 0.239967 0.276297 0.268888 0.312 0.290423 0.347374 0.258212 0.295807 0.276297 0.323777 0.312 0.365421 0.347374 0.428248 0.295807 0.339828 0.323777 0.386811 0.171538 0.191554 0.17459 0.1959 0.168646 0.187529 0.171542 0.191559 0.191554 0.216537 0.1959 0.222877 0.187529 0.210836 0.191559 0.21654 0.216537 0.248991 0.222877 0.257768 0.210836 0.239967 0.21654 0.248988 0.248991 0.290423 0.257768 0.305814 0.239967 0.276297 0.248988 0.290418 0.290423 0.347374 0.305814 0.374447 0.276297 0.323777 0.290418 0.347225 0.347374 0.428248 0.374447 0.482351 0.323777 0.386811 0.347225 0.428092 0.17459 0.1959 0.175664 0.197357 0.171542 0.191559 0.172537 0.192971 0.1959 0.222877 0.197357 0.225684 0.191559 0.21654 0.192971 0.218636 0.222877 0.257768 0.225684 0.261375 0.21654 0.248988 0.218636 0.251738 0.257768 0.305814 0.261375 0.311813 0.248988 0.290418 0.251738 0.295487 0.305814 0.374447 0.311813 0.386441 0.290418 0.347225 0.295487 0.355966 0.374447 0.482351 0.386441 0.506665 0.347225 0.428092 0.355966 0.444195 0.175664 0.197357 0.17459 0.1959 0.172537 0.192971 0.171542 0.191558 0.197357 0.225684 0.1959 0.222876 0.192971 0.218636 0.191558 0.21654 0.225684 0.261375 0.222876 0.257769 0.218636 0.251738 0.21654 0.248986 0.261375 0.311813 0.257769 0.305814 0.251738 0.295487 0.248986 0.290415 0.311813 0.386441 0.305814 0.374443 0.295487 0.355966 0.290415 0.347221 0.386441 0.506665 0.374443 0.482361 0.355966 0.444195 0.347221 0.428071 0.17459 0.1959 0.171538 0.191553 0.171542 0.191558 0.168645 0.187529 0.1959 0.222876 0.191553 0.216538 0.191558 0.21654 0.187529 0.210835 0.222876 0.257769 0.216538 0.24899 0.21654 0.248986 0.210835 0.239967 0.257769 0.305814 0.24899 0.290426 0.248986 0.290415 0.239967 0.276289 0.305814 0.374443 0.290426 0.347409 0.290415 0.347221 0.276289 0.323787 0.374443 0.482361 0.347409 0.428097 0.347221 0.428071 0.323787 0.386841 0.171538 0.191553 0.166776 0.184977 0.168645 0.187529 0.16412 0.181371 0.191553 0.216538 0.184977 0.207237 0.187529 0.210835 0.181371 0.202183 0.216538 0.24899 0.207237 0.23472 0.210835 0.239967 0.202183 0.227424 0.24899 0.290426 0.23472 0.268832 0.239967 0.276289 0.227424 0.258236 0.290426 0.347409 0.268832 0.312559 0.276289 0.323787 0.258236 0.295664 0.347409 0.428097 0.312559 0.36639 0.323787 0.386841 0.295664 0.339577 0.166776 0.184977 0.160712 0.176812 0.16412 0.181371 0.158335 0.173656 0.184977 0.207237 0.176812 0.195973 0.181371 0.202183 0.173656 0.191701 0.207237 0.23472 0.195973 0.218748 0.202183 0.227424 0.191701 0.212869 0.23472 0.268832 0.218748 0.245833 0.227424 0.258236 0.212869 0.237546 0.268832 0.312559 0.245833 0.277314 0.258236 0.295664 0.237546 0.265614 0.312559 0.36639 0.277314 0.312586 0.295664 0.339577 0.265614 0.295688 0.36639 0.427791 0.312586 0.34736 0.339577 0.386948 0.295688 0.323819 0.427791 0.483629 0.34736 0.375126 0.386948 0.427666 0.323819 0.347261 0.483629 0.504056 0.375126 0.385712 0.427666 0.444714 0.347261 0.35578 0.504056 0.478416 0.385712 0.374212 0.444714 0.429804 0.35578 0.346925 0.160712 0.176812 0.153574 0.167769 0.158335 0.173656 0.151502 0.165067 0.176812 0.195973 0.167769 0.183887 0.173656 0.191701 0.165067 0.180348 0.195973 0.218748 0.183887 0.202348 0.191701 0.212869 0.180348 0.197659 0.218748 0.245833 0.202348 0.223168 0.212869 0.237546 0.197659 0.216938 0.245833 0.277314 0.223168 0.245932 0.237546 0.265614 0.216938 0.237629 0.277314 0.312586 0.245932 0.268969 0.265614 0.295688 0.237629 0.258338 0.312586 0.34736 0.268969 0.290713 0.295688 0.323819 0.258338 0.276506 0.34736 0.375126 0.290713 0.3065 0.323819 0.347261 0.276506 0.290601 0.375126 0.385712 0.3065 0.312134 0.347261 0.35578 0.290601 0.295447 0.385712 0.374212 0.312134 0.304853 0.35578 0.346925 0.295447 0.289397 0.151503 0.165068 0.158336 0.173657 0.148225 0.160837 0.154594 0.168749 0.165068 0.180349 0.173657 0.191702 0.160837 0.174871 0.168749 0.185159 0.180349 0.197662 0.191702 0.212871 0.174871 0.190515 0.185159 0.204023 0.197662 0.216942 0.212871 0.23755 0.190515 0.207599 0.204023 0.225441 0.216942 0.237635 0.23755 0.26563 0.207599 0.225523 0.225441 0.249022 0.237635 0.258291 0.26563 0.295835 0.225523 0.243003 0.249022 0.273358 0.258291 0.276523 0.295835 0.323811 0.243003 0.258285 0.273358 0.295653 0.276523 0.290609 0.323811 0.347273 0.258285 0.268815 0.295653 0.312486 0.290609 0.295453 0.347273 0.35579 0.268815 0.272612 0.312486 0.318481 0.295453 0.289402 0.35579 0.346931 0.272612 0.268261 0.318481 0.312285 0.158336 0.173657 0.16412 0.181372 0.154594 0.168749 0.159963 0.175799 0.173657 0.191702 0.181372 0.202183 0.168749 0.185159 0.175799 0.194536 0.191702 0.212871 0.202183 0.227429 0.185159 0.204023 0.194536 0.216729 0.212871 0.23755 0.227429 0.258212 0.204023 0.225441 0.216729 0.242926 0.23755 0.26563 0.258212 0.295807 0.225441 0.249022 0.242926 0.273327 0.26563 0.295835 0.295807 0.339828 0.249022 0.273358 0.273327 0.306823 0.295835 0.323811 0.339828 0.386924 0.273358 0.295653 0.306823 0.339526 0.323811 0.347273 0.386924 0.427707 0.295653 0.312486 0.339526 0.366373 0.347273 0.35579 0.427707 0.444753 0.312486 0.318481 0.366373 0.376047 0.35579 0.346931 0.444753 0.429806 0.318481 0.312285 0.376047 0.366482 0.16412 0.181372 0.168646 0.187529 0.159963 0.175799 0.164137 0.181386 0.181372 0.202183 0.187529 0.210836 0.175799 0.194536 0.181386 0.202187 0.202183 0.227429 0.210836 0.239967 0.194536 0.216729 0.202187 0.227411 0.227429 0.258212 0.239967 0.276297 0.216729 0.242926 0.227411 0.258146 0.258212 0.295807 0.276297 0.323777 0.242926 0.273327 0.258146 0.295751 0.295807 0.339828 0.323777 0.386811 0.273327 0.306823 0.295751 0.339704 0.168646 0.187529 0.171542 0.191559 0.164137 0.181386 0.166798 0.184998 0.187529 0.210836 0.191559 0.21654 0.181386 0.202187 0.184998 0.207241 0.210836 0.239967 0.21654 0.248988 0.202187 0.227411 0.207241 0.23472 0.239967 0.276297 0.248988 0.290418 0.227411 0.258146 0.23472 0.2688 0.276297 0.323777 0.290418 0.347225 0.258146 0.295751 0.2688 0.311341 0.323777 0.386811 0.347225 0.428092 0.295751 0.339704 0.311341 0.365542 0.171542 0.191559 0.172537 0.192971 0.166798 0.184998 0.167714 0.186251 0.191559 0.21654 0.192971 0.218636 0.184998 0.207241 0.186251 0.209005 0.21654 0.248988 0.218636 0.251738 0.207241 0.23472 0.209005 0.237273 0.248988 0.290418 0.251738 0.295487 0.23472 0.2688 0.237273 0.273297 0.290418 0.347225 0.295487 0.355966 0.2688 0.311341 0.273297 0.318378 0.347225 0.428092 0.355966 0.444195 0.311341 0.365542 0.318378 0.376631 0.706948 0.655557 0.7945 0.712604 0.502972 0.479952 0.531132 0.503504 0.172537 0.192971 0.171542 0.191558 0.167714 0.186251 0.166797 0.184997 0.192971 0.218636 0.191558 0.21654 0.186251 0.209005 0.184997 0.20724 0.218636 0.251738 0.21654 0.248986 0.209005 0.237273 0.20724 0.234718 0.251738 0.295487 0.248986 0.290415 0.237273 0.273297 0.234718 0.268796 0.295487 0.355966 0.290415 0.347221 0.273297 0.318378 0.268796 0.311335 0.355966 0.444195 0.347221 0.428071 0.318378 0.376631 0.311335 0.365524 0.171542 0.191558 0.168645 0.187529 0.166797 0.184997 0.164136 0.181384 0.191558 0.21654 0.187529 0.210835 0.184997 0.20724 0.181384 0.202185 0.21654 0.248986 0.210835 0.239967 0.20724 0.234718 0.202185 0.227407 0.248986 0.290415 0.239967 0.276289 0.234718 0.268796 0.227407 0.258138 0.290415 0.347221 0.276289 0.323787 0.268796 0.311335 0.258138 0.295726 0.347221 0.428071 0.323787 0.386841 0.311335 0.365524 0.295726 0.339666 0.168645 0.187529 0.16412 0.181371 0.164136 0.181384 0.159962 0.175797 0.187529 0.210835 0.181371 0.202183 0.181384 0.202185 0.175797 0.194534 0.210835 0.239967 0.202183 0.227424 0.202185 0.227407 0.194534 0.216726 0.239967 0.276289 0.227424 0.258236 0.227407 0.258138 0.216726 0.242908 0.276289 0.323787 0.258236 0.295664 0.258138 0.295726 0.242908 0.273297 0.323787 0.386841 0.295664 0.339577 0.295726 0.339666 0.273297 0.306791 0.16412 0.181371 0.158335 0.173656 0.159962 0.175797 0.154593 0.168747 0.181371 0.202183 0.173656 0.191701 0.175797 0.194534 0.168747 0.185156 0.202183 0.227424 0.191701 0.212869 0.194534 0.216726 0.185156 0.204018 0.227424 0.258236 0.212869 0.237546 0.216726 0.242908 0.204018 0.225428 0.258236 0.295664 0.237546 0.265614 0.242908 0.273297 0.225428 0.248986 0.295664 0.339577 0.265614 0.295688 0.273297 0.306791 0.248986 0.273327 0.339577 0.386948 0.295688 0.323819 0.306791 0.339482 0.273327 0.295623 0.386948 0.427666 0.323819 0.347261 0.339482 0.366329 0.295623 0.312472 0.427666 0.444714 0.347261 0.35578 0.366329 0.376072 0.312472 0.318474 0.444714 0.429804 0.35578 0.346925 0.376072 0.366414 0.318474 0.312278 0.158335 0.173656 0.151502 0.165067 0.154593 0.168747 0.148223 0.160835 0.173656 0.191701 0.165067 0.180348 0.168747 0.185156 0.160835 0.174868 0.191701 0.212869 0.180348 0.197659 0.185156 0.204018 0.174868 0.19051 0.212869 0.237546 0.197659 0.216938 0.204018 0.225428 0.19051 0.207588 0.237546 0.265614 0.216938 0.237629 0.225428 0.248986 0.207588 0.225504 0.265614 0.295688 0.237629 0.258338 0.248986 0.273327 0.225504 0.24297 0.295688 0.323819 0.258338 0.276506 0.273327 0.295623 0.24297 0.258269 0.323819 0.347261 0.276506 0.290601 0.295623 0.312472 0.258269 0.268805 0.347261 0.35578 0.290601 0.295447 0.312472 0.318474 0.268805 0.272606 0.35578 0.346925 0.295447 0.289397 0.318474 0.312278 0.272606 0.268256 0.148225 0.160837 0.154594 0.168749 0.143963 0.155414 0.149766 0.162517 0.160837 0.174871 0.168749 0.185159 0.155414 0.167959 0.162517 0.177014 0.174871 0.190515 0.185159 0.204023 0.167959 0.181671 0.177014 0.193275 0.190515 0.207599 0.204023 0.225441 0.181671 0.196295 0.193275 0.211176 0.207599 0.225523 0.225441 0.249022 0.196295 0.21124 0.211176 0.230152 0.225523 0.243003 0.249022 0.273358 0.21124 0.22547 0.230152 0.24896 0.243003 0.258285 0.273358 0.295653 0.22547 0.237534 0.24896 0.265504 0.258285 0.268815 0.295653 0.312486 0.237534 0.245752 0.265504 0.277147 0.268815 0.272612 0.312486 0.318481 0.245752 0.248612 0.277147 0.2813 0.272612 0.268261 0.318481 0.312285 0.248612 0.245341 0.2813 0.276976 0.154594 0.168749 0.159963 0.175799 0.149766 0.162517 0.154632 0.168785 0.168749 0.185159 0.175799 0.194536 0.162517 0.177014 0.168785 0.185155 0.185159 0.204023 0.194536 0.216729 0.177014 0.193275 0.185155 0.203993 0.204023 0.225441 0.216729 0.242926 0.193275 0.211176 0.203993 0.225385 0.225441 0.249022 0.242926 0.273327 0.211176 0.230152 0.225385 0.248951 0.249022 0.273358 0.273327 0.306823 0.230152 0.24896 0.248951 0.273266 0.273358 0.295653 0.306823 0.339526 0.24896 0.265504 0.273266 0.295609 0.295653 0.312486 0.339526 0.366373 0.265504 0.277147 0.295609 0.311806 0.312486 0.318481 0.366373 0.376047 0.277147 0.2813 0.311806 0.317837 0.318481 0.312285 0.376047 0.366482 0.2813 0.276976 0.317837 0.312366 0.159963 0.175799 0.164137 0.181386 0.154632 0.168785 0.158393 0.17371 0.175799 0.194536 0.181386 0.202187 0.168785 0.185155 0.17371 0.191702 0.194536 0.216729 0.202187 0.227411 0.185155 0.203993 0.191702 0.212827 0.216729 0.242926 0.227411 0.258146 0.203993 0.225385 0.212827 0.23744 0.242926 0.273327 0.258146 0.295751 0.225385 0.248951 0.23744 0.265445 0.273327 0.306823 0.295751 0.339704 0.248951 0.273266 0.265445 0.295694 0.306823 0.339526 0.339704 0.3869 0.273266 0.295609 0.295694 0.323638 0.339526 0.366373 0.3869 0.427683 0.295609 0.311806 0.323638 0.347065 0.366373 0.376047 0.427683 0.445048 0.311806 0.317837 0.347065 0.355623 0.376047 0.366482 0.445048 0.429387 0.317837 0.312366 0.355623 0.346848 0.164137 0.181386 0.166798 0.184998 0.158393 0.17371 0.160778 0.176874 0.181386 0.202187 0.184998 0.207241 0.17371 0.191702 0.176874 0.195977 0.202187 0.227411 0.207241 0.23472 0.191702 0.212827 0.195977 0.218719 0.227411 0.258146 0.23472 0.2688 0.212827 0.23744 0.218719 0.245704 0.258146 0.295751 0.2688 0.311341 0.23744 0.265445 0.245704 0.277051 0.295751 0.339704 0.311341 0.365542 0.265445 0.295694 0.277051 0.311282 0.339704 0.3869 0.365542 0.427827 0.295694 0.323638 0.311282 0.347081 0.3869 0.427683 0.427827 0.484101 0.323638 0.347065 0.347081 0.374934 0.427683 0.445048 0.484101 0.502972 0.347065 0.355623 0.374934 0.385489 0.445048 0.429387 0.502972 0.479952 0.355623 0.346848 0.385489 0.374245 0.166798 0.184998 0.167714 0.186251 0.160778 0.176874 0.161596 0.177966 0.184998 0.207241 0.186251 0.209005 0.176874 0.195977 0.177966 0.197466 0.207241 0.23472 0.209005 0.237273 0.195977 0.218719 0.197466 0.220808 0.23472 0.2688 0.237273 0.273297 0.218719 0.245704 0.220808 0.248709 0.2688 0.311341 0.273297 0.318378 0.245704 0.277051 0.248709 0.281723 0.311341 0.365542 0.318378 0.376631 0.277051 0.311282 0.281723 0.318313 0.365542 0.427827 0.376631 0.44424 0.311282 0.347081 0.318313 0.355747 0.427827 0.484101 0.44424 0.506389 0.347081 0.374934 0.355747 0.385476 0.484101 0.502972 0.506389 0.531132 0.374934 0.385489 0.385476 0.397475 0.502972 0.479952 0.531132 0.503504 0.385489 0.374245 0.397475 0.385119 0.167714 0.186251 0.166797 0.184997 0.161596 0.177966 0.160777 0.176873 0.186251 0.209005 0.184997 0.20724 0.177966 0.197466 0.176873 0.195976 0.209005 0.237273 0.20724 0.234718 0.197466 0.220808 0.195976 0.218717 0.237273 0.273297 0.234718 0.268796 0.220808 0.248709 0.218717 0.2457 0.273297 0.318378 0.268796 0.311335 0.248709 0.281723 0.2457 0.277044 0.318378 0.376631 0.311335 0.365524 0.281723 0.318313 