<?xml version="1.0" ?> 
<!-- 
# vtk DataFile Version 3.0
#This file was generated by the deal.II library on 16:48:19 at 2019/11/27
-->
<VTKFile type="UnstructuredGrid" version="0.1" byte_order="LittleEndian">
<UnstructuredGrid>
<Piece NumberOfPoints="34432" NumberOfCells="4304" >
  <Points>
    <DataArray type="Float32" NumberOfComponents="3" format="ascii">
-50 -50 0
-40 -50 0
-50 -40 0
-40 -40 0
-50 -50 10
-40 -50 10
-50 -40 10
-40 -40 10
-40 -50 0
-30 -50 0
-40 -40 0
-30 -40 0
-40 -50 10
-30 -50 10
-40 -40 10
-30 -40 10
-30 -50 0
-20 -50 0
-30 -40 0
-20 -40 0
-30 -50 10
-20 -50 10
-30 -40 10
-20 -40 10
-20 -50 0
-10 -50 0
-20 -40 0
-10 -40 0
-20 -50 10
-10 -50 10
-20 -40 10
-10 -40 10
-10 -50 0
0 -50 0
-10 -40 0
0 -40 0
-10 -50 10
0 -50 10
-10 -40 10
0 -40 10
0 -50 0
10 -50 0
0 -40 0
10 -40 0
0 -50 10
10 -50 10
0 -40 10
10 -40 10
10 -50 0
20 -50 0
10 -40 0
20 -40 0
10 -50 10
20 -50 10
10 -40 10
20 -40 10
20 -50 0
30 -50 0
20 -40 0
30 -40 0
20 -50 10
30 -50 10
20 -40 10
30 -40 10
30 -50 0
40 -50 0
30 -40 0
40 -40 0
30 -50 10
40 -50 10
30 -40 10
40 -40 10
40 -50 0
50 -50 0
40 -40 0
50 -40 0
40 -50 10
50 -50 10
40 -40 10
50 -40 10
-50 -40 0
-40 -40 0
-50 -30 0
-40 -30 0
-50 -40 10
-40 -40 10
-50 -30 10
-40 -30 10
-40 -40 0
-30 -40 0
-40 -30 0
-30 -30 0
-40 -40 10
-30 -40 10
-40 -30 10
-30 -30 10
-30 -40 0
-20 -40 0
-30 -30 0
-20 -30 0
-30 -40 10
-20 -40 10
-30 -30 10
-20 -30 10
-20 -40 0
-10 -40 0
-20 -30 0
-10 -30 0
-20 -40 10
-10 -40 10
-20 -30 10
-10 -30 10
20 -40 0
30 -40 0
20 -30 0
30 -30 0
20 -40 10
30 -40 10
20 -30 10
30 -30 10
-50 -30 0
-40 -30 0
-50 -20 0
-40 -20 0
-50 -30 10
-40 -30 10
-50 -20 10
-40 -20 10
-40 -30 0
-30 -30 0
-40 -20 0
-30 -20 0
-40 -30 10
-30 -30 10
-40 -20 10
-30 -20 10
-30 -30 0
-20 -30 0
-30 -20 0
-20 -20 0
-30 -30 10
-20 -30 10
-30 -20 10
-20 -20 10
20 -30 0
30 -30 0
20 -20 0
30 -20 0
20 -30 10
30 -30 10
20 -20 10
30 -20 10
-50 -20 0
-40 -20 0
-50 -10 0
-40 -10 0
-50 -20 10
-40 -20 10
-50 -10 10
-40 -10 10
-40 -20 0
-30 -20 0
-40 -10 0
-30 -10 0
-40 -20 10
-30 -20 10
-40 -10 10
-30 -10 10
-30 -20 0
-20 -20 0
-30 -10 0
-20 -10 0
-30 -20 10
-20 -20 10
-30 -10 10
-20 -10 10
-20 -20 0
-10 -20 0
-20 -10 0
-10 -10 0
-20 -20 10
-10 -20 10
-20 -10 10
-10 -10 10
-50 -10 0
-40 -10 0
-50 0 0
-40 0 0
-50 -10 10
-40 -10 10
-50 0 10
-40 0 10
-40 -10 0
-30 -10 0
-40 0 0
-30 0 0
-40 -10 10
-30 -10 10
-40 0 10
-30 0 10
-30 -10 0
-20 -10 0
-30 0 0
-20 0 0
-30 -10 10
-20 -10 10
-30 0 10
-20 0 10
-50 0 0
-40 0 0
-50 10 0
-40 10 0
-50 0 10
-40 0 10
-50 10 10
-40 10 10
-40 0 0
-30 0 0
-40 10 0
-30 10 0
-40 0 10
-30 0 10
-40 10 10
-30 10 10
-30 0 0
-20 0 0
-30 10 0
-20 10 0
-30 0 10
-20 0 10
-30 10 10
-20 10 10
-50 10 0
-40 10 0
-50 20 0
-40 20 0
-50 10 10
-40 10 10
-50 20 10
-40 20 10
-40 10 0
-30 10 0
-40 20 0
-30 20 0
-40 10 10
-30 10 10
-40 20 10
-30 20 10
-30 10 0
-20 10 0
-30 20 0
-20 20 0
-30 10 10
-20 10 10
-30 20 10
-20 20 10
-20 10 0
-10 10 0
-20 20 0
-10 20 0
-20 10 10
-10 10 10
-20 20 10
-10 20 10
-50 20 0
-40 20 0
-50 30 0
-40 30 0
-50 20 10
-40 20 10
-50 30 10
-40 30 10
-40 20 0
-30 20 0
-40 30 0
-30 30 0
-40 20 10
-30 20 10
-40 30 10
-30 30 10
-30 20 0
-20 20 0
-30 30 0
-20 30 0
-30 20 10
-20 20 10
-30 30 10
-20 30 10
-50 30 0
-40 30 0
-50 40 0
-40 40 0
-50 30 10
-40 30 10
-50 40 10
-40 40 10
-40 30 0
-30 30 0
-40 40 0
-30 40 0
-40 30 10
-30 30 10
-40 40 10
-30 40 10
-30 30 0
-20 30 0
-30 40 0
-20 40 0
-30 30 10
-20 30 10
-30 40 10
-20 40 10
-20 30 0
-10 30 0
-20 40 0
-10 40 0
-20 30 10
-10 30 10
-20 40 10
-10 40 10
20 30 0
30 30 0
20 40 0
30 40 0
20 30 10
30 30 10
20 40 10
30 40 10
-50 40 0
-40 40 0
-50 50 0
-40 50 0
-50 40 10
-40 40 10
-50 50 10
-40 50 10
-40 40 0
-30 40 0
-40 50 0
-30 50 0
-40 40 10
-30 40 10
-40 50 10
-30 50 10
-30 40 0
-20 40 0
-30 50 0
-20 50 0
-30 40 10
-20 40 10
-30 50 10
-20 50 10
-20 40 0
-10 40 0
-20 50 0
-10 50 0
-20 40 10
-10 40 10
-20 50 10
-10 50 10
-10 40 0
0 40 0
-10 50 0
0 50 0
-10 40 10
0 40 10
-10 50 10
0 50 10
0 40 0
10 40 0
0 50 0
10 50 0
0 40 10
10 40 10
0 50 10
10 50 10
10 40 0
20 40 0
10 50 0
20 50 0
10 40 10
20 40 10
10 50 10
20 50 10
20 40 0
30 40 0
20 50 0
30 50 0
20 40 10
30 40 10
20 50 10
30 50 10
30 40 0
40 40 0
30 50 0
40 50 0
30 40 10
40 40 10
30 50 10
40 50 10
40 40 0
50 40 0
40 50 0
50 50 0
40 40 10
50 40 10
40 50 10
50 50 10
-50 -50 10
-40 -50 10
-50 -40 10
-40 -40 10
-50 -50 20
-40 -50 20
-50 -40 20
-40 -40 20
-40 -50 10
-30 -50 10
-40 -40 10
-30 -40 10
-40 -50 20
-30 -50 20
-40 -40 20
-30 -40 20
-30 -50 10
-20 -50 10
-30 -40 10
-20 -40 10
-30 -50 20
-20 -50 20
-30 -40 20
-20 -40 20
-20 -50 10
-10 -50 10
-20 -40 10
-10 -40 10
-20 -50 20
-10 -50 20
-20 -40 20
-10 -40 20
-10 -50 10
0 -50 10
-10 -40 10
0 -40 10
-10 -50 20
0 -50 20
-10 -40 20
0 -40 20
0 -50 10
10 -50 10
0 -40 10
10 -40 10
0 -50 20
10 -50 20
0 -40 20
10 -40 20
10 -50 10
20 -50 10
10 -40 10
20 -40 10
10 -50 20
20 -50 20
10 -40 20
20 -40 20
20 -50 10
30 -50 10
20 -40 10
30 -40 10
20 -50 20
30 -50 20
20 -40 20
30 -40 20
30 -50 10
40 -50 10
30 -40 10
40 -40 10
30 -50 20
40 -50 20
30 -40 20
40 -40 20
-50 -40 10
-40 -40 10
-50 -30 10
-40 -30 10
-50 -40 20
-40 -40 20
-50 -30 20
-40 -30 20
-40 -40 10
-30 -40 10
-40 -30 10
-30 -30 10
-40 -40 20
-30 -40 20
-40 -30 20
-30 -30 20
-30 -40 10
-20 -40 10
-30 -30 10
-20 -30 10
-30 -40 20
-20 -40 20
-30 -30 20
-20 -30 20
-20 -40 10
-10 -40 10
-20 -30 10
-10 -30 10
-20 -40 20
-10 -40 20
-20 -30 20
-10 -30 20
-10 -40 10
0 -40 10
-10 -30 10
0 -30 10
-10 -40 20
0 -40 20
-10 -30 20
0 -30 20
20 -40 10
30 -40 10
20 -30 10
30 -30 10
20 -40 20
30 -40 20
20 -30 20
30 -30 20
-50 -30 10
-40 -30 10
-50 -20 10
-40 -20 10
-50 -30 20
-40 -30 20
-50 -20 20
-40 -20 20
-40 -30 10
-30 -30 10
-40 -20 10
-30 -20 10
-40 -30 20
-30 -30 20
-40 -20 20
-30 -20 20
-30 -30 10
-20 -30 10
-30 -20 10
-20 -20 10
-30 -30 20
-20 -30 20
-30 -20 20
-20 -20 20
-50 -20 10
-40 -20 10
-50 -10 10
-40 -10 10
-50 -20 20
-40 -20 20
-50 -10 20
-40 -10 20
-40 -20 10
-30 -20 10
-40 -10 10
-30 -10 10
-40 -20 20
-30 -20 20
-40 -10 20
-30 -10 20
-30 -20 10
-20 -20 10
-30 -10 10
-20 -10 10
-30 -20 20
-20 -20 20
-30 -10 20
-20 -10 20
-50 -10 10
-40 -10 10
-50 0 10
-40 0 10
-50 -10 20
-40 -10 20
-50 0 20
-40 0 20
-40 -10 10
-30 -10 10
-40 0 10
-30 0 10
-40 -10 20
-30 -10 20
-40 0 20
-30 0 20
-30 -10 10
-20 -10 10
-30 0 10
-20 0 10
-30 -10 20
-20 -10 20
-30 0 20
-20 0 20
-20 -10 10
-10 -10 10
-20 0 10
-10 0 10
-20 -10 20
-10 -10 20
-20 0 20
-10 0 20
-50 0 10
-40 0 10
-50 10 10
-40 10 10
-50 0 20
-40 0 20
-50 10 20
-40 10 20
-40 0 10
-30 0 10
-40 10 10
-30 10 10
-40 0 20
-30 0 20
-40 10 20
-30 10 20
-30 0 10
-20 0 10
-30 10 10
-20 10 10
-30 0 20
-20 0 20
-30 10 20
-20 10 20
-20 0 10
-10 0 10
-20 10 10
-10 10 10
-20 0 20
-10 0 20
-20 10 20
-10 10 20
-50 10 10
-40 10 10
-50 20 10
-40 20 10
-50 10 20
-40 10 20
-50 20 20
-40 20 20
-40 10 10
-30 10 10
-40 20 10
-30 20 10
-40 10 20
-30 10 20
-40 20 20
-30 20 20
-30 10 10
-20 10 10
-30 20 10
-20 20 10
-30 10 20
-20 10 20
-30 20 20
-20 20 20
-50 20 10
-40 20 10
-50 30 10
-40 30 10
-50 20 20
-40 20 20
-50 30 20
-40 30 20
-40 20 10
-30 20 10
-40 30 10
-30 30 10
-40 20 20
-30 20 20
-40 30 20
-30 30 20
-30 20 10
-20 20 10
-30 30 10
-20 30 10
-30 20 20
-20 20 20
-30 30 20
-20 30 20
-50 30 10
-40 30 10
-50 40 10
-40 40 10
-50 30 20
-40 30 20
-50 40 20
-40 40 20
-40 30 10
-30 30 10
-40 40 10
-30 40 10
-40 30 20
-30 30 20
-40 40 20
-30 40 20
-30 30 10
-20 30 10
-30 40 10
-20 40 10
-30 30 20
-20 30 20
-30 40 20
-20 40 20
-20 30 10
-10 30 10
-20 40 10
-10 40 10
-20 30 20
-10 30 20
-20 40 20
-10 40 20
-10 30 10
0 30 10
-10 40 10
0 40 10
-10 30 20
0 30 20
-10 40 20
0 40 20
20 30 10
30 30 10
20 40 10
30 40 10
20 30 20
30 30 20
20 40 20
30 40 20
-50 40 10
-40 40 10
-50 50 10
-40 50 10
-50 40 20
-40 40 20
-50 50 20
-40 50 20
-40 40 10
-30 40 10
-40 50 10
-30 50 10
-40 40 20
-30 40 20
-40 50 20
-30 50 20
-30 40 10
-20 40 10
-30 50 10
-20 50 10
-30 40 20
-20 40 20
-30 50 20
-20 50 20
-20 40 10
-10 40 10
-20 50 10
-10 50 10
-20 40 20
-10 40 20
-20 50 20
-10 50 20
-10 40 10
0 40 10
-10 50 10
0 50 10
-10 40 20
0 40 20
-10 50 20
0 50 20
10 40 10
20 40 10
10 50 10
20 50 10
10 40 20
20 40 20
10 50 20
20 50 20
20 40 10
30 40 10
20 50 10
30 50 10
20 40 20
30 40 20
20 50 20
30 50 20
30 40 10
40 40 10
30 50 10
40 50 10
30 40 20
40 40 20
30 50 20
40 50 20
-50 -50 20
-40 -50 20
-50 -40 20
-40 -40 20
-50 -50 30
-40 -50 30
-50 -40 30
-40 -40 30
-40 -50 20
-30 -50 20
-40 -40 20
-30 -40 20
-40 -50 30
-30 -50 30
-40 -40 30
-30 -40 30
-30 -50 20
-20 -50 20
-30 -40 20
-20 -40 20
-30 -50 30
-20 -50 30
-30 -40 30
-20 -40 30
-20 -50 20
-10 -50 20
-20 -40 20
-10 -40 20
-20 -50 30
-10 -50 30
-20 -40 30
-10 -40 30
-10 -50 20
0 -50 20
-10 -40 20
0 -40 20
-10 -50 30
0 -50 30
-10 -40 30
0 -40 30
0 -50 20
10 -50 20
0 -40 20
10 -40 20
0 -50 30
10 -50 30
0 -40 30
10 -40 30
20 -50 20
30 -50 20
20 -40 20
30 -40 20
20 -50 30
30 -50 30
20 -40 30
30 -40 30
40 -50 20
50 -50 20
40 -40 20
50 -40 20
40 -50 30
50 -50 30
40 -40 30
50 -40 30
-50 -40 20
-40 -40 20
-50 -30 20
-40 -30 20
-50 -40 30
-40 -40 30
-50 -30 30
-40 -30 30
-40 -40 20
-30 -40 20
-40 -30 20
-30 -30 20
-40 -40 30
-30 -40 30
-40 -30 30
-30 -30 30
-30 -40 20
-20 -40 20
-30 -30 20
-20 -30 20
-30 -40 30
-20 -40 30
-30 -30 30
-20 -30 30
-20 -40 20
-10 -40 20
-20 -30 20
-10 -30 20
-20 -40 30
-10 -40 30
-20 -30 30
-10 -30 30
-10 -40 20
0 -40 20
-10 -30 20
0 -30 20
-10 -40 30
0 -40 30
-10 -30 30
0 -30 30
0 -40 20
10 -40 20
0 -30 20
10 -30 20
0 -40 30
10 -40 30
0 -30 30
10 -30 30
20 -40 20
30 -40 20
20 -30 20
30 -30 20
20 -40 30
30 -40 30
20 -30 30
30 -30 30
40 -40 20
50 -40 20
40 -30 20
50 -30 20
40 -40 30
50 -40 30
40 -30 30
50 -30 30
-50 -30 20
-40 -30 20
-50 -20 20
-40 -20 20
-50 -30 30
-40 -30 30
-50 -20 30
-40 -20 30
-40 -30 20
-30 -30 20
-40 -20 20
-30 -20 20
-40 -30 30
-30 -30 30
-40 -20 30
-30 -20 30
-30 -30 20
-20 -30 20
-30 -20 20
-20 -20 20
-30 -30 30
-20 -30 30
-30 -20 30
-20 -20 30
-20 -30 20
-10 -30 20
-20 -20 20
-10 -20 20
-20 -30 30
-10 -30 30
-20 -20 30
-10 -20 30
-10 -30 20
0 -30 20
-10 -20 20
0 -20 20
-10 -30 30
0 -30 30
[...]
  <PointData Scalars="scalars">
    <DataArray type="Float32" Name="u" format="ascii">
0.176152 0.194148 0.187174 0.208513 0.175108 0.192742 0.185916 0.206779 0.194148 0.214371 0.208513 0.234206 0.192742 0.212483 0.206779 0.231745 0.214371 0.236961 0.234206 0.264662 0.212483 0.234422 0.231745 0.261122 0.236961 0.261098 0.264662 0.299752 0.234422 0.257687 0.261122 0.294612 0.261098 0.28412 0.299752 0.338197 0.257687 0.279892 0.294612 0.33013 0.28412 0.305042 0.338197 0.375061 0.279892 0.299572 0.33013 0.365401 0.305042 0.316591 0.375061 0.394431 0.299572 0.310433 0.365401 0.383017 0.316591 0.316473 0.394431 0.394237 0.310433 0.310211 0.383017 0.383223 0.316473 0.304401 0.394237 0.375186 0.310211 0.296624 0.383223 0.363869 0.304401 0.282646 0.375186 0.339189 0.296624 0.278505 0.363869 0.330343 0.187174 0.208513 0.196874 0.222196 0.185916 0.206779 0.195417 0.220089 0.208513 0.234206 0.222196 0.253944 0.206779 0.231745 0.220089 0.250867 0.234206 0.264662 0.253944 0.294557 0.231745 0.261122 0.250867 0.289678 0.264662 0.299752 0.294557 0.345725 0.261122 0.294612 0.289678 0.337505 0.394431 0.394237 0.52294 0.522941 0.383017 0.383223 0.496443 0.496379 0.196874 0.222196 0.204761 0.233754 0.195417 0.220089 0.203112 0.231333 0.222196 0.253944 0.233754 0.271727 0.220089 0.250867 0.231333 0.2677 0.253944 0.294557 0.271727 0.322072 0.250867 0.289678 0.2677 0.316437 0.52294 0.522941 0.768936 0.768959 0.496443 0.496379 0.692598 0.692673 0.204761 0.233754 0.210089 0.241736 0.203112 0.231333 0.208258 0.238922 0.233754 0.271727 0.241736 0.284434 0.231333 0.2677 0.238922 0.280532 0.271727 0.322072 0.284434 0.344481 0.2677 0.316437 0.280532 0.337086 0.322072 0.396434 0.344481 0.437869 0.316437 0.383298 0.337086 0.422169 0.210089 0.241736 0.211797 0.245655 0.208258 0.238922 0.210085 0.241798 0.241736 0.284434 0.245655 0.289075 0.238922 0.280532 0.241798 0.284261 0.284434 0.344481 0.289075 0.357325 0.280532 0.337086 0.284261 0.344509 0.211797 0.245655 0.210092 0.241739 0.210085 0.241798 0.208261 0.238925 0.245655 0.289075 0.241739 0.284439 0.241798 0.284261 0.238925 0.280537 0.289075 0.357325 0.284439 0.344489 0.284261 0.344509 0.280537 0.337094 0.210092 0.241739 0.204767 0.23376 0.208261 0.238925 0.203117 0.23134 0.241739 0.284439 0.23376 0.271736 0.238925 0.280537 0.23134 0.267708 0.284439 0.344489 0.271736 0.322083 0.280537 0.337094 0.267708 0.316447 0.344489 0.437915 0.322083 0.396448 0.337094 0.422192 0.316447 0.383307 0.204767 0.23376 0.196881 0.222205 0.203117 0.23134 0.195424 0.220098 0.23376 0.271736 0.222205 0.253955 0.23134 0.267708 0.220098 0.250878 0.271736 0.322083 0.253955 0.294571 0.267708 0.316447 0.250878 0.289693 0.196881 0.222205 0.187183 0.208523 0.195424 0.220098 0.185925 0.206789 0.222205 0.253955 0.208523 0.234219 0.220098 0.250878 0.206789 0.231759 0.253955 0.294571 0.234219 0.264685 0.250878 0.289693 0.231759 0.26114 0.294571 0.345732 0.264685 0.299771 0.289693 0.337506 0.26114 0.294669 0.522096 0.522111 0.394459 0.394441 0.496299 0.496322 0.383236 0.383222 0.187183 0.208523 0.176161 0.194158 0.185925 0.206789 0.175116 0.192752 0.208523 0.234219 0.194158 0.214386 0.206789 0.231759 0.192752 0.212496 0.234219 0.264685 0.214386 0.23698 0.231759 0.26114 0.212496 0.234448 0.264685 0.299771 0.23698 0.261168 0.26114 0.294669 0.234448 0.257704 0.299771 0.338277 0.261168 0.284108 0.294669 0.330016 0.257704 0.280359 0.338277 0.375521 0.284108 0.304689 0.330016 0.364055 0.280359 0.296704 0.375521 0.394459 0.304689 0.316573 0.364055 0.383236 0.296704 0.310253 0.394459 0.394441 0.316573 0.316517 0.383236 0.383222 0.310253 0.310216 0.394441 0.375186 0.316517 0.30442 0.383222 0.363884 0.310216 0.296639 0.375186 0.339216 0.30442 0.28266 0.363884 0.330352 0.296639 0.278514 0.175108 0.192742 0.185916 0.206779 0.172077 0.188695 0.182288 0.201811 0.192742 0.212483 0.206779 0.231745 0.188695 0.207094 0.201811 0.224796 0.212483 0.234422 0.231745 0.261122 0.207094 0.22725 0.224796 0.251311 0.234422 0.257687 0.261122 0.294612 0.22725 0.248242 0.251311 0.280742 0.257687 0.279892 0.294612 0.33013 0.248242 0.268146 0.280742 0.310911 0.279892 0.299572 0.33013 0.365401 0.268146 0.283808 0.310911 0.33751 0.299572 0.310433 0.365401 0.383017 0.283808 0.292661 0.33751 0.353075 0.310433 0.310211 0.383017 0.383223 0.292661 0.292595 0.353075 0.353065 0.310211 0.296624 0.383223 0.363869 0.292595 0.284118 0.353065 0.337365 0.185916 0.206779 0.195417 0.220089 0.182288 0.201811 0.191218 0.214132 0.206779 0.231745 0.220089 0.250867 0.201811 0.224796 0.214132 0.242175 0.231745 0.261122 0.250867 0.289678 0.224796 0.251311 0.242175 0.276269 0.261122 0.294612 0.289678 0.337505 0.251311 0.280742 0.276269 0.317112 0.294612 0.33013 0.337505 0.394224 0.280742 0.310911 0.317112 0.363154 0.383017 0.383223 0.496443 0.496379 0.353075 0.353065 0.4356 0.435609 0.195417 0.220089 0.203112 0.231333 0.191218 0.214132 0.198417 0.2244 0.220089 0.250867 0.231333 0.2677 0.214132 0.242175 0.2244 0.257163 0.250867 0.289678 0.2677 0.316437 0.242175 0.276269 0.257163 0.299781 0.203112 0.231333 0.208258 0.238922 0.198417 0.2244 0.203116 0.231388 0.231333 0.2677 0.238922 0.280532 0.2244 0.257163 0.231388 0.267629 0.2677 0.316437 0.280532 0.337086 0.257163 0.299781 0.267629 0.316349 0.208258 0.238922 0.210085 0.241798 0.203116 0.231388 0.20479 0.233738 0.238922 0.280532 0.241798 0.284261 0.231388 0.267629 0.233738 0.272572 0.280532 0.337086 0.284261 0.344509 0.267629 0.316349 0.272572 0.323118 0.337086 0.422169 0.344509 0.437964 0.316349 0.383348 0.323118 0.396384 0.210085 0.241798 0.208261 0.238925 0.20479 0.233738 0.203118 0.231391 0.241798 0.284261 0.238925 0.280537 0.233738 0.272572 0.231391 0.267633 0.284261 0.344509 0.280537 0.337094 0.272572 0.323118 0.267633 0.316354 0.344509 0.437964 0.337094 0.422192 0.323118 0.396384 0.316354 0.383351 0.208261 0.238925 0.203117 0.23134 0.203118 0.231391 0.198422 0.224406 0.238925 0.280537 0.23134 0.267708 0.231391 0.267633 0.224406 0.257171 0.280537 0.337094 0.267708 0.316447 0.267633 0.316354 0.257171 0.299789 0.203117 0.23134 0.195424 0.220098 0.198422 0.224406 0.191225 0.21414 0.23134 0.267708 0.220098 0.250878 0.224406 0.257171 0.21414 0.242185 0.267708 0.316447 0.250878 0.289693 0.257171 0.299789 0.242185 0.276283 0.195424 0.220098 0.185925 0.206789 0.191225 0.21414 0.182295 0.201821 0.220098 0.250878 0.206789 0.231759 0.21414 0.242185 0.201821 0.224809 0.250878 0.289693 0.231759 0.26114 0.242185 0.276283 0.224809 0.25133 0.289693 0.337506 0.26114 0.294669 0.276283 0.31712 0.25133 0.280789 0.337506 0.394226 0.294669 0.330016 0.31712 0.363187 0.280789 0.310888 0.496299 0.496322 0.383236 0.383222 0.434777 0.434809 0.353166 0.353149 0.185925 0.206789 0.175116 0.192752 0.182295 0.201821 0.172085 0.188705 0.206789 0.231759 0.192752 0.212496 0.201821 0.224809 0.188705 0.207107 0.231759 0.26114 0.212496 0.234448 0.224809 0.25133 0.207107 0.227272 0.26114 0.294669 0.234448 0.257704 0.25133 0.280789 0.227272 0.248276 0.294669 0.330016 0.257704 0.280359 0.280789 0.310888 0.248276 0.268501 0.364055 0.383236 0.296704 0.310253 0.337366 0.353166 0.284299 0.292609 0.383236 0.383222 0.310253 0.310216 0.353166 0.353149 0.292609 0.292585 0.383222 0.363884 0.310216 0.296639 0.353149 0.337348 0.292585 0.284132 0.172077 0.188695 0.182288 0.201811 0.167339 0.182465 0.176667 0.194244 0.188695 0.207094 0.201811 0.224796 0.182465 0.19893 0.194244 0.214466 0.207094 0.22725 0.224796 0.251311 0.19893 0.216595 0.214466 0.237104 0.22725 0.248242 0.251311 0.280742 0.216595 0.234574 0.237104 0.261361 0.248242 0.268146 0.280742 0.310911 0.234574 0.251263 0.261361 0.285242 0.268146 0.283808 0.310911 0.33751 0.251263 0.264722 0.285242 0.30508 0.292661 0.292595 0.353075 0.353065 0.272082 0.27208 0.316844 0.316838 0.284118 0.267593 0.337365 0.310762 0.264598 0.25023 0.305036 0.28519 0.182288 0.201811 0.191218 0.214132 0.176667 0.194244 0.184767 0.205174 0.201811 0.224796 0.214132 0.242175 0.194244 0.214466 0.205174 0.229391 0.224796 0.251311 0.242175 0.276269 0.214466 0.237104 0.229391 0.257782 0.251311 0.280742 0.276269 0.317112 0.237104 0.261361 0.257782 0.289943 0.280742 0.310911 0.317112 0.363154 0.261361 0.285242 0.289943 0.323631 0.310911 0.33751 0.363154 0.406672 0.285242 0.30508 0.323631 0.354098 0.353075 0.353065 0.4356 0.435609 0.316844 0.316838 0.3729 0.37289 0.337365 0.310762 0.406796 0.363822 0.305036 0.28519 0.354141 0.324189 0.191218 0.214132 0.198417 0.2244 0.184767 0.205174 0.191239 0.214141 0.214132 0.242175 0.2244 0.257163 0.205174 0.229391 0.214141 0.242161 0.242175 0.276269 0.257163 0.299781 0.229391 0.257782 0.242161 0.276237 0.276269 0.317112 0.299781 0.352872 0.257782 0.289943 0.276237 0.317067 0.317112 0.363154 0.352872 0.420766 0.289943 0.323631 0.317067 0.363127 0.198417 0.2244 0.203116 0.231388 0.191239 0.214141 0.195447 0.220125 0.2244 0.257163 0.231388 0.267629 0.214141 0.242161 0.220125 0.250808 0.257163 0.299781 0.267629 0.316349 0.242161 0.276237 0.250808 0.289597 0.203116 0.231388 0.20479 0.233738 0.195447 0.220125 0.1969 0.222264 0.231388 0.267629 0.233738 0.272572 0.220125 0.250808 0.222264 0.253916 0.267629 0.316349 0.272572 0.323118 0.250808 0.289597 0.253916 0.294497 0.692639 0.692731 0.768819 0.768923 0.49635 0.496473 0.522574 0.522593 0.20479 0.233738 0.203118 0.231391 0.1969 0.222264 0.195449 0.220127 0.233738 0.272572 0.231391 0.267633 0.222264 0.253916 0.220127 0.250811 0.272572 0.323118 0.267633 0.316354 0.253916 0.294497 0.250811 0.2896 0.203118 0.231391 0.198422 0.224406 0.195449 0.220127 0.191243 0.214146 0.231391 0.267633 0.224406 0.257171 0.220127 0.250811 0.214146 0.242167 0.267633 0.316354 0.257171 0.299789 0.250811 0.2896 0.242167 0.276245 0.198422 0.224406 0.191225 0.21414 0.191243 0.214146 0.184773 0.205181 0.224406 0.257171 0.21414 0.242185 0.214146 0.242167 0.205181 0.2294 0.257171 0.299789 0.242185 0.276283 0.242167 0.276245 0.2294 0.257794 0.299789 0.35288 0.276283 0.31712 0.276245 0.317074 0.257794 0.289959 0.35288 0.420768 0.31712 0.363187 0.317074 0.36314 0.289959 0.323642 0.550301 0.550363 0.434777 0.434809 0.434761 0.43481 0.372912 0.37293 0.191225 0.21414 0.182295 0.201821 0.184773 0.205181 0.176674 0.194252 0.21414 0.242185 0.201821 0.224809 0.205181 0.2294 0.194252 0.214477 0.242185 0.276283 0.224809 0.25133 0.2294 0.257794 0.214477 0.237121 0.276283 0.31712 0.25133 0.280789 0.257794 0.289959 0.237121 0.261386 0.31712 0.363187 0.280789 0.310888 0.289959 0.323642 0.261386 0.28529 0.363187 0.406698 0.310888 0.337366 0.323642 0.354131 0.28529 0.305126 0.434777 0.434809 0.353166 0.353149 0.372912 0.37293 0.316831 0.316816 0.406825 0.363836 0.337348 0.310774 0.354212 0.32419 0.305033 0.285199 0.182295 0.201821 0.172085 0.188705 0.176674 0.194252 0.167346 0.182473 0.201821 0.224809 0.188705 0.207107 0.194252 0.214477 0.182473 0.198941 0.224809 0.25133 0.207107 0.227272 0.214477 0.237121 0.198941 0.216612 0.25133 0.280789 0.227272 0.248276 0.237121 0.261386 0.216612 0.234614 0.280789 0.310888 0.248276 0.268501 0.261386 0.28529 0.234614 0.251295 0.310888 0.337366 0.268501 0.284299 0.28529 0.305126 0.251295 0.26473 0.353166 0.353149 0.292609 0.292585 0.316831 0.316816 0.272121 0.272087 0.337348 0.310774 0.284132 0.267593 0.305033 0.285199 0.2646 0.250232 0.167339 0.182465 0.176667 0.194244 0.161289 0.174663 0.169574 0.184915 0.182465 0.19893 0.194244 0.214466 0.174663 0.188926 0.184915 0.202084 0.19893 0.216595 0.214466 0.237104 0.188926 0.203853 0.202084 0.220672 0.216595 0.234574 0.237104 0.261361 0.203853 0.218641 0.220672 0.239816 0.234574 0.251263 0.261361 0.285242 0.218641 0.232036 0.239816 0.257847 0.251263 0.264722 0.285242 0.30508 0.232036 0.242362 0.257847 0.272363 0.264722 0.272082 0.30508 0.316844 0.242362 0.248064 0.272363 0.280545 0.272082 0.27208 0.316844 0.316838 0.248064 0.248031 0.280545 0.280513 0.27208 0.264598 0.316838 0.305036 0.248031 0.242223 0.280513 0.272249 0.264598 0.25023 0.305036 0.28519 0.242223 0.231307 0.272249 0.257725 0.176667 0.194244 0.184767 0.205174 0.169574 0.184915 0.17671 0.194281 0.194244 0.214466 0.205174 0.229391 0.184915 0.202084 0.194281 0.214441 0.214466 0.237104 0.229391 0.257782 0.202084 0.220672 0.214441 0.237052 0.237104 0.261361 0.257782 0.289943 0.220672 0.239816 0.237052 0.261296 0.261361 0.285242 0.289943 0.323631 0.239816 0.257847 0.261296 0.285189 0.285242 0.30508 0.323631 0.354098 0.257847 0.272363 0.285189 0.305023 0.30508 0.316844 0.354098 0.3729 0.272363 0.280545 0.305023 0.31667 0.316844 0.316838 0.3729 0.37289 0.280545 0.280513 0.31667 0.316818 0.316838 0.305036 0.37289 0.354141 0.280513 0.272249 0.316818 0.305133 0.305036 0.28519 0.354141 0.324189 0.272249 0.257725 0.305133 0.285217 0.184767 0.205174 0.191239 0.214141 0.17671 0.194281 0.182353 0.201866 0.205174 0.229391 0.214141 0.242161 0.194281 0.214441 0.201866 0.224761 0.229391 0.257782 0.242161 0.276237 0.214441 0.237052 0.224761 0.25123 0.257782 0.289943 0.276237 0.317067 0.237052 0.261296 0.25123 0.280656 0.289943 0.323631 0.317067 0.363127 0.261296 0.285189 0.280656 0.310727 0.323631 0.354098 0.363127 0.406615 0.285189 0.305023 0.310727 0.33722 0.3729 0.37289 0.435551 0.435423 0.31667 0.316818 0.352802 0.353982 0.354141 0.324189 0.406763 0.363816 0.305133 0.285217 0.337448 0.310708 0.191239 0.214141 0.195447 0.220125 0.182353 0.201866 0.185995 0.206844 0.214141 0.242161 0.220125 0.250808 0.201866 0.224761 0.206844 0.231711 0.242161 0.276237 0.250808 0.289597 0.224761 0.25123 0.231711 0.26103 0.276237 0.317067 0.289597 0.337462 0.25123 0.280656 0.26103 0.294529 0.317067 0.363127 0.337462 0.394165 0.280656 0.310727 0.294529 0.329857 0.435551 0.435423 0.49635 0.496473 0.352802 0.353982 0.383225 0.38303 0.195447 0.220125 0.1969 0.222264 0.185995 0.206844 0.187259 0.208581 0.220125 0.250808 0.222264 0.253916 0.206844 0.231711 0.208581 0.234169 0.250808 0.289597 0.253916 0.294497 0.231711 0.26103 0.234169 0.264571 0.289597 0.337462 0.294497 0.345725 0.26103 0.294529 0.264571 0.299635 0.49635 0.496473 0.522574 0.522593 0.383225 0.38303 0.394271 0.394331 0.1969 0.222264 0.195449 0.220127 0.187259 0.208581 0.185997 0.206846 0.222264 0.253916 0.220127 0.250811 0.208581 0.234169 0.206846 0.231713 0.253916 0.294497 0.250811 0.2896 0.234169 0.264571 0.231713 0.261033 0.294497 0.345725 0.2896 0.337465 0.264571 0.299635 0.261033 0.294532 0.522574 0.522593 0.496151 0.4962 0.394271 0.394331 0.383245 0.383263 0.195449 0.220127 0.191243 0.214146 0.185997 0.206846 0.182357 0.20187 0.220127 0.250811 0.214146 0.242167 0.206846 0.231713 0.20187 0.224766 0.250811 0.2896 0.242167 0.276245 0.231713 0.261033 0.224766 0.251236 0.2896 0.337465 0.276245 0.317074 0.261033 0.294532 0.251236 0.280663 0.337465 0.394169 0.317074 0.36314 0.294532 0.329861 0.280663 0.310735 0.496151 0.4962 0.434761 0.43481 0.383245 0.383263 0.352828 0.352846 0.191243 0.214146 0.184773 0.205181 0.182357 0.20187 0.176715 0.194287 0.214146 0.242167 0.205181 0.2294 0.20187 0.224766 0.194287 0.214448 0.242167 0.276245 0.2294 0.257794 0.224766 0.251236 0.214448 0.237061 0.276245 0.317074 0.257794 0.289959 0.251236 0.280663 0.237061 0.261307 0.317074 0.36314 0.289959 0.323642 0.280663 0.310735 0.261307 0.285204 0.36314 0.406641 0.323642 0.354131 0.310735 0.337213 0.285204 0.305035 0.434761 0.43481 0.372912 0.37293 0.352828 0.352846 0.316684 0.316686 0.406801 0.363816 0.354212 0.32419 0.337364 0.31073 0.305067 0.28524 0.184773 0.205181 0.176674 0.194252 0.176715 0.194287 0.16958 0.184922 0.205181 0.2294 0.194252 0.214477 0.194287 0.214448 0.184922 0.202093 0.2294 0.257794 0.214477 0.237121 0.214448 0.237061 0.202093 0.220684 0.257794 0.289959 0.237121 0.261386 0.237061 0.261307 0.220684 0.239833 0.289959 0.323642 0.261386 0.28529 0.261307 0.285204 0.239833 0.257864 0.323642 0.354131 0.28529 0.305126 0.285204 0.305035 0.257864 0.272379 0.354131 0.372912 0.305126 0.316831 0.305035 0.316684 0.272379 0.280552 0.372912 0.37293 0.316831 0.316816 0.316684 0.316686 0.280552 0.280526 0.37293 0.354212 0.316816 0.305033 0.316686 0.305067 0.280526 0.272258 0.354212 0.32419 0.305033 0.285199 0.305067 0.28524 0.272258 0.257728 0.176674 0.194252 0.167346 0.182473 0.16958 0.184922 0.161295 0.17467 0.194252 0.214477 0.182473 0.198941 0.184922 0.202093 0.17467 0.188935 0.214477 0.237121 0.198941 0.216612 0.202093 0.220684 0.188935 0.203866 0.237121 0.261386 0.216612 0.234614 0.220684 0.239833 0.203866 0.218657 0.261386 0.28529 0.234614 0.251295 0.239833 0.257864 0.218657 0.232056 0.28529 0.305126 0.251295 0.26473 0.257864 0.272379 0.232056 0.24238 0.305126 0.316831 0.26473 0.272121 0.272379 0.280552 0.24238 0.24807 0.316831 0.316816 0.272121 0.272087 0.280552 0.280526 0.24807 0.248032 0.316816 0.305033 0.272087 0.2646 0.280526 0.272258 0.248032 0.242225 0.305033 0.285199 0.2646 0.250232 0.272258 0.257728 0.242225 0.231313 0.161289 0.174663 0.169574 0.184915 0.15436 0.165927 0.161558 0.174645 0.174663 0.188926 0.184915 0.202084 0.165927 0.177991 0.174645 0.188871 0.188926 0.203853 0.202084 0.220672 0.177991 0.190294 0.188871 0.20376 0.203853 0.218641 0.220672 0.239816 0.190294 0.202151 0.20376 0.218523 0.218641 0.232036 0.239816 0.257847 0.202151 0.212594 0.218523 0.231906 0.232036 0.242362 0.257847 0.272363 0.212594 0.220485 0.231906 0.24226 0.242362 0.248064 0.272363 0.280545 0.220485 0.224742 0.24226 0.247955 0.248064 0.248031 0.280545 0.280513 0.224742 0.224699 0.247955 0.247931 0.248031 0.242223 0.280513 0.272249 0.224699 0.22034 0.247931 0.242134 0.242223 0.231307 0.272249 0.257725 0.22034 0.21204 0.242134 0.231728 0.169574 0.184915 0.17671 0.194281 0.161558 0.174645 0.167704 0.182481 0.184915 0.202084 0.194281 0.214441 0.174645 0.188871 0.182481 0.198851 0.202084 0.220672 0.214441 0.237052 0.188871 0.20376 0.198851 0.216446 0.220672 0.239816 0.237052 0.261296 0.20376 0.218523 0.216446 0.234392 0.239816 0.257847 0.261296 0.285189 0.218523 0.231906 0.234392 0.251107 0.257847 0.272363 0.285189 0.305023 0.231906 0.24226 0.251107 0.264447 0.272363 0.280545 0.305023 0.31667 0.24226 0.247955 0.264447 0.271992 0.280545 0.280513 0.31667 0.316818 0.247955 0.247931 0.271992 0.271918 0.280513 0.272249 0.316818 0.305133 0.247931 0.242134 0.271918 0.264329 0.272249 0.257725 0.305133 0.285217 0.242134 0.231728 0.264329 0.25099 0.17671 0.194281 0.182353 0.201866 0.167704 0.182481 0.172518 0.188734 0.194281 0.214441 0.201866 0.224761 0.182481 0.198851 0.188734 0.207013 0.214441 0.237052 0.224761 0.25123 0.198851 0.216446 0.207013 0.227079 0.237052 0.261296 0.25123 0.280656 0.216446 0.234392 0.227079 0.248041 0.261296 0.285189 0.280656 0.310727 0.234392 0.251107 0.248041 0.268137 0.285189 0.305023 0.310727 0.33722 0.251107 0.264447 0.268137 0.284393 0.31667 0.316818 0.352802 0.353982 0.271992 0.271918 0.293391 0.294567 0.316818 0.305133 0.353982 0.337448 0.271918 0.264329 0.294567 0.284232 0.305133 0.285217 0.337448 0.310708 0.264329 0.25099 0.284232 0.268404 0.182353 0.201866 0.185995 0.206844 0.172518 0.188734 0.1756 0.192797 0.201866 0.224761 0.206844 0.231711 0.188734 0.207013 0.192797 0.212404 0.224761 0.25123 0.231711 0.26103 0.207013 0.227079 0.212404 0.234248 0.25123 0.280656 0.26103 0.294529 0.227079 0.248041 0.234248 0.257445 0.280656 0.310727 0.294529 0.329857 0.248041 0.268137 0.257445 0.280114 0.33722 0.352802 0.363843 0.383225 0.284393 0.293391 0.297366 0.309962 0.352802 0.353982 0.383225 0.38303 0.293391 0.294567 0.309962 0.310036 0.353982 0.337448 0.38303 0.363882 0.294567 0.284232 0.310036 0.297409 0.185995 0.206844 0.187259 0.208581 0.1756 0.192797 0.176662 0.194209 0.206844 0.231711 0.208581 0.234169 0.192797 0.212404 0.194209 0.214296 0.231711 0.26103 0.234169 0.264571 0.212404 0.234248 0.214296 0.23678 0.26103 0.294529 0.264571 0.299635 0.234248 0.257445 0.23678 0.260888 0.294529 0.329857 0.299635 0.338147 0.257445 0.280114 0.260888 0.283985 0.329857 0.363843 0.338147 0.375484 0.280114 0.297366 0.283985 0.304308 0.363843 0.383225 0.375484 0.394271 0.297366 0.309962 0.304308 0.316044 0.383225 0.38303 0.394271 0.394331 0.309962 0.310036 0.316044 0.316047 0.38303 0.363882 0.394331 0.375313 0.310036 0.297409 0.316047 0.30432 0.363882 0.330297 0.375313 0.339485 