<?xml version="1.0" ?> 
<!-- 
# vtk DataFile Version 3.0
#This file was generated by the deal.II library on 16:50:07 at 2019/11/27
-->
<VTKFile type="UnstructuredGrid" version="0.1" byte_order="LittleEndian">
<UnstructuredGrid>
<Piece NumberOfPoints="9512" NumberOfCells="1189" >
  <Points>
    <DataArray type="Float32" NumberOfComponents="3" format="ascii">
-50 -50 0
-40 -50 0
-50 -40 0
-40 -40 0
-50 -50 10
-40 -50 10
-50 -40 10
-40 -40 10
-40 -50 0
-30 -50 0
-40 -40 0
-30 -40 0
-40 -50 10
-30 -50 10
-40 -40 10
-30 -40 10
-30 -50 0
-20 -50 0
-30 -40 0
-20 -40 0
-30 -50 10
-20 -50 10
-30 -40 10
-20 -40 10
-20 -50 0
-10 -50 0
-20 -40 0
-10 -40 0
-20 -50 10
-10 -50 10
-20 -40 10
-10 -40 10
-10 -50 0
0 -50 0
-10 -40 0
0 -40 0
-10 -50 10
0 -50 10
-10 -40 10
0 -40 10
0 -50 0
10 -50 0
0 -40 0
10 -40 0
0 -50 10
10 -50 10
0 -40 10
10 -40 10
10 -50 0
20 -50 0
10 -40 0
20 -40 0
10 -50 10
20 -50 10
10 -40 10
20 -40 10
20 -50 0
30 -50 0
20 -40 0
30 -40 0
20 -50 10
30 -50 10
20 -40 10
30 -40 10
30 -50 0
40 -50 0
30 -40 0
40 -40 0
30 -50 10
40 -50 10
30 -40 10
40 -40 10
40 -50 0
50 -50 0
40 -40 0
50 -40 0
40 -50 10
50 -50 10
40 -40 10
50 -40 10
-50 -40 0
-40 -40 0
-50 -30 0
-40 -30 0
-50 -40 10
-40 -40 10
-50 -30 10
-40 -30 10
-40 -40 0
-30 -40 0
-40 -30 0
-30 -30 0
-40 -40 10
-30 -40 10
-40 -30 10
-30 -30 10
-30 -40 0
-20 -40 0
-30 -30 0
-20 -30 0
-30 -40 10
-20 -40 10
-30 -30 10
-20 -30 10
-20 -40 0
-10 -40 0
-20 -30 0
-10 -30 0
-20 -40 10
-10 -40 10
-20 -30 10
-10 -30 10
-10 -40 0
0 -40 0
-10 -30 0
0 -30 0
-10 -40 10
0 -40 10
-10 -30 10
0 -30 10
0 -40 0
10 -40 0
0 -30 0
10 -30 0
0 -40 10
10 -40 10
0 -30 10
10 -30 10
10 -40 0
20 -40 0
10 -30 0
20 -30 0
10 -40 10
20 -40 10
10 -30 10
20 -30 10
20 -40 0
30 -40 0
20 -30 0
30 -30 0
20 -40 10
30 -40 10
20 -30 10
30 -30 10
30 -40 0
40 -40 0
30 -30 0
40 -30 0
30 -40 10
40 -40 10
30 -30 10
40 -30 10
40 -40 0
50 -40 0
40 -30 0
50 -30 0
40 -40 10
50 -40 10
40 -30 10
50 -30 10
-50 -30 0
-40 -30 0
-50 -20 0
-40 -20 0
-50 -30 10
-40 -30 10
-50 -20 10
-40 -20 10
-40 -30 0
-30 -30 0
-40 -20 0
-30 -20 0
-40 -30 10
-30 -30 10
-40 -20 10
-30 -20 10
-30 -30 0
-20 -30 0
-30 -20 0
-20 -20 0
-30 -30 10
-20 -30 10
-30 -20 10
-20 -20 10
-20 -30 0
-10 -30 0
-20 -20 0
-10 -20 0
-20 -30 10
-10 -30 10
-20 -20 10
-10 -20 10
-10 -30 0
0 -30 0
-10 -20 0
0 -20 0
-10 -30 10
0 -30 10
-10 -20 10
0 -20 10
0 -30 0
10 -30 0
0 -20 0
10 -20 0
0 -30 10
10 -30 10
0 -20 10
10 -20 10
10 -30 0
20 -30 0
10 -20 0
20 -20 0
10 -30 10
20 -30 10
10 -20 10
20 -20 10
20 -30 0
30 -30 0
20 -20 0
30 -20 0
20 -30 10
30 -30 10
20 -20 10
30 -20 10
30 -30 0
40 -30 0
30 -20 0
40 -20 0
30 -30 10
40 -30 10
30 -20 10
40 -20 10
40 -30 0
50 -30 0
40 -20 0
50 -20 0
40 -30 10
50 -30 10
40 -20 10
50 -20 10
-50 -20 0
-40 -20 0
-50 -10 0
-40 -10 0
-50 -20 10
-40 -20 10
-50 -10 10
-40 -10 10
-40 -20 0
-30 -20 0
-40 -10 0
-30 -10 0
-40 -20 10
-30 -20 10
-40 -10 10
-30 -10 10
-30 -20 0
-20 -20 0
-30 -10 0
-20 -10 0
-30 -20 10
-20 -20 10
-30 -10 10
-20 -10 10
-20 -20 0
-10 -20 0
-20 -10 0
-10 -10 0
-20 -20 10
-10 -20 10
-20 -10 10
-10 -10 10
-10 -20 0
0 -20 0
-10 -10 0
0 -10 0
-10 -20 10
0 -20 10
-10 -10 10
0 -10 10
0 -20 0
10 -20 0
0 -10 0
10 -10 0
0 -20 10
10 -20 10
0 -10 10
10 -10 10
10 -20 0
20 -20 0
10 -10 0
20 -10 0
10 -20 10
20 -20 10
10 -10 10
20 -10 10
20 -20 0
30 -20 0
20 -10 0
30 -10 0
20 -20 10
30 -20 10
20 -10 10
30 -10 10
30 -20 0
40 -20 0
30 -10 0
40 -10 0
30 -20 10
40 -20 10
30 -10 10
40 -10 10
40 -20 0
50 -20 0
40 -10 0
50 -10 0
40 -20 10
50 -20 10
40 -10 10
50 -10 10
-50 -10 0
-40 -10 0
-50 0 0
-40 0 0
-50 -10 10
-40 -10 10
-50 0 10
-40 0 10
-40 -10 0
-30 -10 0
-40 0 0
-30 0 0
-40 -10 10
-30 -10 10
-40 0 10
-30 0 10
-30 -10 0
-20 -10 0
-30 0 0
-20 0 0
-30 -10 10
-20 -10 10
-30 0 10
-20 0 10
-20 -10 0
-10 -10 0
-20 0 0
-10 0 0
-20 -10 10
-10 -10 10
-20 0 10
-10 0 10
-50 0 0
-40 0 0
-50 10 0
-40 10 0
-50 0 10
-40 0 10
-50 10 10
-40 10 10
-40 0 0
-30 0 0
-40 10 0
-30 10 0
-40 0 10
-30 0 10
-40 10 10
-30 10 10
-30 0 0
-20 0 0
-30 10 0
-20 10 0
-30 0 10
-20 0 10
-30 10 10
-20 10 10
-20 0 0
-10 0 0
-20 10 0
-10 10 0
-20 0 10
-10 0 10
-20 10 10
-10 10 10
-50 10 0
-40 10 0
-50 20 0
-40 20 0
-50 10 10
-40 10 10
-50 20 10
-40 20 10
-40 10 0
-30 10 0
-40 20 0
-30 20 0
-40 10 10
-30 10 10
-40 20 10
-30 20 10
-30 10 0
-20 10 0
-30 20 0
-20 20 0
-30 10 10
-20 10 10
-30 20 10
-20 20 10
-20 10 0
-10 10 0
-20 20 0
-10 20 0
-20 10 10
-10 10 10
-20 20 10
-10 20 10
-10 10 0
0 10 0
-10 20 0
0 20 0
-10 10 10
0 10 10
-10 20 10
0 20 10
0 10 0
10 10 0
0 20 0
10 20 0
0 10 10
10 10 10
0 20 10
10 20 10
10 10 0
20 10 0
10 20 0
20 20 0
10 10 10
20 10 10
10 20 10
20 20 10
20 10 0
30 10 0
20 20 0
30 20 0
20 10 10
30 10 10
20 20 10
30 20 10
30 10 0
40 10 0
30 20 0
40 20 0
30 10 10
40 10 10
30 20 10
40 20 10
40 10 0
50 10 0
40 20 0
50 20 0
40 10 10
50 10 10
40 20 10
50 20 10
-50 20 0
-40 20 0
-50 30 0
-40 30 0
-50 20 10
-40 20 10
-50 30 10
-40 30 10
-40 20 0
-30 20 0
-40 30 0
-30 30 0
-40 20 10
-30 20 10
-40 30 10
-30 30 10
-30 20 0
-20 20 0
-30 30 0
-20 30 0
-30 20 10
-20 20 10
-30 30 10
-20 30 10
-20 20 0
-10 20 0
-20 30 0
-10 30 0
-20 20 10
-10 20 10
-20 30 10
-10 30 10
-10 20 0
0 20 0
-10 30 0
0 30 0
-10 20 10
0 20 10
-10 30 10
0 30 10
0 20 0
10 20 0
0 30 0
10 30 0
0 20 10
10 20 10
0 30 10
10 30 10
10 20 0
20 20 0
10 30 0
20 30 0
10 20 10
20 20 10
10 30 10
20 30 10
20 20 0
30 20 0
20 30 0
30 30 0
20 20 10
30 20 10
20 30 10
30 30 10
30 20 0
40 20 0
30 30 0
40 30 0
30 20 10
40 20 10
30 30 10
40 30 10
40 20 0
50 20 0
40 30 0
50 30 0
40 20 10
50 20 10
40 30 10
50 30 10
-50 30 0
-40 30 0
-50 40 0
-40 40 0
-50 30 10
-40 30 10
-50 40 10
-40 40 10
-40 30 0
-30 30 0
-40 40 0
-30 40 0
-40 30 10
-30 30 10
-40 40 10
-30 40 10
-30 30 0
-20 30 0
-30 40 0
-20 40 0
-30 30 10
-20 30 10
-30 40 10
-20 40 10
-20 30 0
-10 30 0
-20 40 0
-10 40 0
-20 30 10
-10 30 10
-20 40 10
-10 40 10
-10 30 0
0 30 0
-10 40 0
0 40 0
-10 30 10
0 30 10
-10 40 10
0 40 10
0 30 0
10 30 0
0 40 0
10 40 0
0 30 10
10 30 10
0 40 10
10 40 10
10 30 0
20 30 0
10 40 0
20 40 0
10 30 10
20 30 10
10 40 10
20 40 10
20 30 0
30 30 0
20 40 0
30 40 0
20 30 10
30 30 10
20 40 10
30 40 10
30 30 0
40 30 0
30 40 0
40 40 0
30 30 10
40 30 10
30 40 10
40 40 10
40 30 0
50 30 0
40 40 0
50 40 0
40 30 10
50 30 10
40 40 10
50 40 10
-50 40 0
-40 40 0
-50 50 0
-40 50 0
-50 40 10
-40 40 10
-50 50 10
-40 50 10
-40 40 0
-30 40 0
-40 50 0
-30 50 0
-40 40 10
-30 40 10
-40 50 10
-30 50 10
-30 40 0
-20 40 0
-30 50 0
-20 50 0
-30 40 10
-20 40 10
-30 50 10
-20 50 10
-20 40 0
-10 40 0
-20 50 0
-10 50 0
-20 40 10
-10 40 10
-20 50 10
-10 50 10
-10 40 0
0 40 0
-10 50 0
0 50 0
-10 40 10
0 40 10
-10 50 10
0 50 10
0 40 0
10 40 0
0 50 0
10 50 0
0 40 10
10 40 10
0 50 10
10 50 10
10 40 0
20 40 0
10 50 0
20 50 0
10 40 10
20 40 10
10 50 10
20 50 10
20 40 0
30 40 0
20 50 0
30 50 0
20 40 10
30 40 10
20 50 10
30 50 10
30 40 0
40 40 0
30 50 0
40 50 0
30 40 10
40 40 10
30 50 10
40 50 10
40 40 0
50 40 0
40 50 0
50 50 0
40 40 10
50 40 10
40 50 10
50 50 10
-50 -50 10
-40 -50 10
-50 -40 10
-40 -40 10
-50 -50 20
-40 -50 20
-50 -40 20
-40 -40 20
-40 -50 10
-30 -50 10
-40 -40 10
-30 -40 10
-40 -50 20
-30 -50 20
-40 -40 20
-30 -40 20
-30 -50 10
-20 -50 10
-30 -40 10
-20 -40 10
-30 -50 20
-20 -50 20
-30 -40 20
-20 -40 20
-20 -50 10
-10 -50 10
-20 -40 10
-10 -40 10
-20 -50 20
-10 -50 20
-20 -40 20
-10 -40 20
-10 -50 10
0 -50 10
-10 -40 10
0 -40 10
-10 -50 20
0 -50 20
-10 -40 20
0 -40 20
0 -50 10
10 -50 10
0 -40 10
10 -40 10
0 -50 20
10 -50 20
0 -40 20
10 -40 20
10 -50 10
20 -50 10
10 -40 10
20 -40 10
10 -50 20
20 -50 20
10 -40 20
20 -40 20
20 -50 10
30 -50 10
20 -40 10
30 -40 10
20 -50 20
30 -50 20
20 -40 20
30 -40 20
30 -50 10
40 -50 10
30 -40 10
40 -40 10
30 -50 20
40 -50 20
30 -40 20
40 -40 20
40 -50 10
50 -50 10
40 -40 10
50 -40 10
40 -50 20
50 -50 20
40 -40 20
50 -40 20
-50 -40 10
-40 -40 10
-50 -30 10
-40 -30 10
-50 -40 20
-40 -40 20
-50 -30 20
-40 -30 20
-40 -40 10
-30 -40 10
-40 -30 10
-30 -30 10
-40 -40 20
-30 -40 20
-40 -30 20
-30 -30 20
-30 -40 10
-20 -40 10
-30 -30 10
-20 -30 10
-30 -40 20
-20 -40 20
-30 -30 20
-20 -30 20
-20 -40 10
-10 -40 10
-20 -30 10
-10 -30 10
-20 -40 20
-10 -40 20
-20 -30 20
-10 -30 20
-10 -40 10
0 -40 10
-10 -30 10
0 -30 10
-10 -40 20
0 -40 20
-10 -30 20
0 -30 20
0 -40 10
10 -40 10
0 -30 10
10 -30 10
0 -40 20
10 -40 20
0 -30 20
10 -30 20
10 -40 10
20 -40 10
10 -30 10
20 -30 10
10 -40 20
20 -40 20
10 -30 20
20 -30 20
20 -40 10
30 -40 10
20 -30 10
30 -30 10
20 -40 20
30 -40 20
20 -30 20
30 -30 20
30 -40 10
40 -40 10
30 -30 10
40 -30 10
30 -40 20
40 -40 20
30 -30 20
40 -30 20
40 -40 10
50 -40 10
40 -30 10
50 -30 10
40 -40 20
50 -40 20
40 -30 20
50 -30 20
-50 -30 10
-40 -30 10
-50 -20 10
-40 -20 10
-50 -30 20
-40 -30 20
-50 -20 20
-40 -20 20
-40 -30 10
-30 -30 10
-40 -20 10
-30 -20 10
-40 -30 20
-30 -30 20
-40 -20 20
-30 -20 20
-30 -30 10
-20 -30 10
-30 -20 10
-20 -20 10
-30 -30 20
-20 -30 20
-30 -20 20
-20 -20 20
-20 -30 10
-10 -30 10
-20 -20 10
-10 -20 10
-20 -30 20
-10 -30 20
-20 -20 20
-10 -20 20
-10 -30 10
0 -30 10
-10 -20 10
0 -20 10
-10 -30 20
0 -30 20
-10 -20 20
0 -20 20
0 -30 10
10 -30 10
0 -20 10
10 -20 10
0 -30 20
10 -30 20
0 -20 20
10 -20 20
10 -30 10
20 -30 10
10 -20 10
20 -20 10
10 -30 20
20 -30 20
10 -20 20
20 -20 20
20 -30 10
30 -30 10
20 -20 10
30 -20 10
20 -30 20
30 -30 20
20 -20 20
30 -20 20
30 -30 10
40 -30 10
30 -20 10
40 -20 10
30 -30 20
40 -30 20
30 -20 20
40 -20 20
40 -30 10
50 -30 10
40 -20 10
50 -20 10
40 -30 20
50 -30 20
40 -20 20
50 -20 20
-50 -20 10
-40 -20 10
-50 -10 10
-40 -10 10
-50 -20 20
-40 -20 20
-50 -10 20
-40 -10 20
-40 -20 10
-30 -20 10
-40 -10 10
-30 -10 10
-40 -20 20
-30 -20 20
-40 -10 20
-30 -10 20
-30 -20 10
-20 -20 10
-30 -10 10
-20 -10 10
-30 -20 20
-20 -20 20
-30 -10 20
-20 -10 20
-20 -20 10
-10 -20 10
-20 -10 10
-10 -10 10
-20 -20 20
-10 -20 20
-20 -10 20
-10 -10 20
-10 -20 10
0 -20 10
-10 -10 10
0 -10 10
-10 -20 20
0 -20 20
-10 -10 20
0 -10 20
0 -20 10
10 -20 10
0 -10 10
10 -10 10
0 -20 20
10 -20 20
0 -10 20
10 -10 20
10 -20 10
20 -20 10
10 -10 10
20 -10 10
10 -20 20
20 -20 20
10 -10 20
[...]
  <PointData Scalars="scalars">
    <DataArray type="Float32" Name="u" format="ascii">
0.161687 0.1773 0.169983 0.187931 0.160886 0.176239 0.169051 0.186671 0.1773 0.195098 0.187931 0.209504 0.176239 0.193687 0.186671 0.207763 0.195098 0.215485 0.209504 0.235365 0.193687 0.213593 0.207763 0.232911 0.215485 0.238276 0.235365 0.266126 0.213593 0.235738 0.232911 0.262608 0.238276 0.262381 0.266126 0.301507 0.235738 0.259056 0.262608 0.296452 0.262381 0.285392 0.301507 0.338654 0.259056 0.281225 0.296452 0.331716 0.285392 0.3037 0.338654 0.371305 0.281225 0.298856 0.331716 0.362411 0.3037 0.313686 0.371305 0.390587 0.298856 0.308458 0.362411 0.380579 0.313686 0.312947 0.390587 0.389758 0.308458 0.30779 0.380579 0.379894 0.312947 0.300247 0.389758 0.368759 0.30779 0.295784 0.379894 0.360257 0.169983 0.187931 0.177041 0.197612 0.169051 0.186671 0.175993 0.196154 0.187931 0.209504 0.197612 0.223089 0.186671 0.207763 0.196154 0.221002 0.209504 0.235365 0.223089 0.255114 0.207763 0.232911 0.221002 0.252022 0.235365 0.266126 0.255114 0.295876 0.232911 0.262608 0.252022 0.291106 0.266126 0.301507 0.295876 0.347792 0.262608 0.296452 0.291106 0.340154 0.301507 0.338654 0.347792 0.410914 0.296452 0.331716 0.340154 0.398519 0.338654 0.371305 0.410914 0.47328 0.331716 0.362411 0.398519 0.456027 0.371305 0.390587 0.47328 0.5151 0.362411 0.380579 0.456027 0.49323 0.390587 0.389758 0.5151 0.515398 0.380579 0.379894 0.49323 0.493414 0.389758 0.368759 0.515398 0.470771 0.379894 0.360257 0.493414 0.45477 0.177041 0.197612 0.182577 0.205421 0.175993 0.196154 0.181434 0.203793 0.197612 0.223089 0.205421 0.234487 0.196154 0.221002 0.203793 0.232076 0.223089 0.255114 0.234487 0.272519 0.221002 0.252022 0.232076 0.268779 0.255114 0.295876 0.272519 0.323888 0.252022 0.291106 0.268779 0.317774 0.295876 0.347792 0.323888 0.396134 0.291106 0.340154 0.317774 0.385228 0.347792 0.410914 0.396134 0.501395 0.340154 0.398519 0.385228 0.479909 0.410914 0.47328 0.501395 0.645058 0.398519 0.456027 0.479909 0.600916 0.47328 0.5151 0.645058 0.745496 0.456027 0.49323 0.600916 0.693995 0.5151 0.515398 0.745496 0.748062 0.49323 0.493414 0.693995 0.696165 0.515398 0.470771 0.748062 0.652328 0.493414 0.45477 0.696165 0.606246 0.182577 0.205421 0.186123 0.210537 0.181434 0.203793 0.184917 0.208789 0.205421 0.234487 0.210537 0.242149 0.203793 0.232076 0.208789 0.239518 0.234487 0.272519 0.242149 0.284846 0.232076 0.268779 0.239518 0.280533 0.272519 0.323888 0.284846 0.345184 0.268779 0.317774 0.280533 0.337572 0.323888 0.396134 0.345184 0.435007 0.317774 0.385228 0.337572 0.421363 0.396134 0.501395 0.435007 0.585343 0.385228 0.479909 0.421363 0.555238 0.501395 0.645058 0.585343 0.881797 0.479909 0.600916 0.555238 0.787095 0.645058 0.745496 0.881797 1.42525 0.600916 0.693995 0.787095 1.10327 0.745496 0.748062 1.42525 1.42776 0.693995 0.696165 1.10327 1.10599 0.748062 0.652328 1.42776 0.901507 0.696165 0.606246 1.10599 0.805802 0.186123 0.210537 0.187346 0.212318 0.184917 0.208789 0.186118 0.210532 0.210537 0.242149 0.212318 0.244888 0.208789 0.239518 0.210532 0.242142 0.242149 0.284846 0.244888 0.2891 0.239518 0.280533 0.242142 0.284835 0.284846 0.345184 0.2891 0.355692 0.280533 0.337572 0.284835 0.345172 0.187346 0.212318 0.186123 0.210537 0.186118 0.210532 0.184917 0.208789 0.212318 0.244888 0.210537 0.242149 0.210532 0.242142 0.208789 0.239518 0.244888 0.2891 0.242149 0.284846 0.242142 0.284835 0.239518 0.280533 0.2891 0.355692 0.284846 0.345185 0.284835 0.345172 0.280533 0.337572 0.186123 0.210537 0.182577 0.205421 0.184917 0.208789 0.181434 0.203793 0.210537 0.242149 0.205421 0.234487 0.208789 0.239518 0.203793 0.232076 0.242149 0.284846 0.234487 0.272519 0.239518 0.280533 0.232076 0.26878 0.284846 0.345185 0.272519 0.323888 0.280533 0.337572 0.26878 0.317775 0.345185 0.435007 0.323888 0.396135 0.337572 0.421363 0.317775 0.385228 0.435007 0.585346 0.396135 0.501397 0.421363 0.555239 0.385228 0.479911 0.585346 0.881808 0.501397 0.645066 0.555239 0.787107 0.479911 0.600916 0.881808 1.42541 0.645066 0.745494 0.787107 1.10319 0.600916 0.694006 1.42541 1.42795 0.745494 0.74806 1.10319 1.10589 0.694006 0.696178 1.42795 0.90156 0.74806 0.652341 1.10589 0.805806 0.696178 0.606246 0.182577 0.205421 0.177041 0.197612 0.181434 0.203793 0.175993 0.196154 0.205421 0.234487 0.197612 0.223089 0.203793 0.232076 0.196154 0.221002 0.234487 0.272519 0.223089 0.255114 0.232076 0.26878 0.221002 0.252022 0.272519 0.323888 0.255114 0.295876 0.26878 0.317775 0.252022 0.291106 0.323888 0.396135 0.295876 0.347793 0.317775 0.385228 0.291106 0.340154 0.396135 0.501397 0.347793 0.410915 0.385228 0.479911 0.340154 0.398519 0.501397 0.645066 0.410915 0.473281 0.479911 0.600916 0.398519 0.456029 0.645066 0.745494 0.473281 0.515103 0.600916 0.694006 0.456029 0.49323 0.745494 0.74806 0.515103 0.515401 0.694006 0.696178 0.49323 0.493415 0.74806 0.652341 0.515401 0.470772 0.696178 0.606246 0.493415 0.454771 0.177041 0.197612 0.169983 0.187931 0.175993 0.196154 0.169051 0.186671 0.197612 0.223089 0.187931 0.209504 0.196154 0.221002 0.186671 0.207763 0.223089 0.255114 0.209504 0.235365 0.221002 0.252022 0.207763 0.232912 0.255114 0.295876 0.235365 0.266126 0.252022 0.291106 0.232912 0.262608 0.295876 0.347793 0.266126 0.301508 0.291106 0.340154 0.262608 0.296452 0.347793 0.410915 0.301508 0.338654 0.340154 0.398519 0.296452 0.331716 0.410915 0.473281 0.338654 0.371306 0.398519 0.456029 0.331716 0.362411 0.473281 0.515103 0.371306 0.390588 0.456029 0.49323 0.362411 0.380579 0.515103 0.515401 0.390588 0.389759 0.49323 0.493415 0.380579 0.379895 0.515401 0.470772 0.389759 0.36876 0.493415 0.454771 0.379895 0.360258 0.169983 0.187931 0.161687 0.1773 0.169051 0.186671 0.160886 0.176239 0.187931 0.209504 0.1773 0.195098 0.186671 0.207763 0.176239 0.193687 0.209504 0.235365 0.195098 0.215485 0.207763 0.232912 0.193687 0.213593 0.235365 0.266126 0.215485 0.238276 0.232912 0.262608 0.213593 0.235738 0.266126 0.301508 0.238276 0.262382 0.262608 0.296452 0.235738 0.259057 0.301508 0.338654 0.262382 0.285392 0.296452 0.331716 0.259057 0.281225 0.338654 0.371306 0.285392 0.303701 0.331716 0.362411 0.281225 0.298856 0.371306 0.390588 0.303701 0.313686 0.362411 0.380579 0.298856 0.308458 0.390588 0.389759 0.313686 0.312947 0.380579 0.379895 0.308458 0.307791 0.389759 0.36876 0.312947 0.300247 0.379895 0.360258 0.307791 0.295784 0.160886 0.176239 0.169051 0.186671 0.158546 0.17316 0.166337 0.183028 0.176239 0.193687 0.186671 0.207763 0.17316 0.18962 0.183028 0.202775 0.193687 0.213593 0.207763 0.232911 0.18962 0.20818 0.202775 0.225957 0.213593 0.235738 0.232911 0.262608 0.20818 0.228547 0.225957 0.252777 0.235738 0.259056 0.262608 0.296452 0.228547 0.249702 0.252777 0.282581 0.259056 0.281225 0.296452 0.331716 0.249702 0.269592 0.282581 0.312894 0.281225 0.298856 0.331716 0.362411 0.269592 0.285309 0.312894 0.338739 0.298856 0.308458 0.362411 0.380579 0.285309 0.293888 0.338739 0.353811 0.308458 0.30779 0.380579 0.379894 0.293888 0.293404 0.353811 0.353362 0.30779 0.295784 0.379894 0.360257 0.293404 0.283071 0.353362 0.337464 0.169051 0.186671 0.175993 0.196154 0.166337 0.183028 0.172949 0.191955 0.186671 0.207763 0.196154 0.221002 0.183028 0.202775 0.191955 0.215052 0.207763 0.232911 0.221002 0.252022 0.202775 0.225957 0.215052 0.243327 0.232911 0.262608 0.252022 0.291106 0.225957 0.252777 0.243327 0.277967 0.262608 0.296452 0.291106 0.340154 0.252777 0.282581 0.277967 0.319678 0.296452 0.331716 0.340154 0.398519 0.282581 0.312894 0.319678 0.3667 0.331716 0.362411 0.398519 0.456027 0.312894 0.338739 0.3667 0.411422 0.362411 0.380579 0.456027 0.49323 0.338739 0.353811 0.411422 0.439707 0.380579 0.379894 0.49323 0.493414 0.353811 0.353362 0.439707 0.439793 0.379894 0.360257 0.493414 0.45477 0.353362 0.337464 0.439793 0.411329 0.175993 0.196154 0.181434 0.203793 0.172949 0.191955 0.17812 0.199115 0.196154 0.221002 0.203793 0.232076 0.191955 0.215052 0.199115 0.225245 0.221002 0.252022 0.232076 0.268779 0.215052 0.243327 0.225245 0.258364 0.252022 0.291106 0.268779 0.317774 0.243327 0.277967 0.258364 0.301068 0.291106 0.340154 0.317774 0.385228 0.277967 0.319678 0.301068 0.356685 0.340154 0.398519 0.385228 0.479909 0.319678 0.3667 0.356685 0.427381 0.398519 0.456027 0.479909 0.600916 0.3667 0.411422 0.427381 0.505578 0.456027 0.49323 0.600916 0.693995 0.411422 0.439707 0.505578 0.564061 0.49323 0.493414 0.693995 0.696165 0.439707 0.439793 0.564061 0.565022 0.493414 0.45477 0.696165 0.606246 0.439793 0.411329 0.565022 0.508378 0.181434 0.203793 0.184917 0.208789 0.17812 0.199115 0.181424 0.203782 0.203793 0.232076 0.208789 0.239518 0.199115 0.225245 0.203782 0.232056 0.232076 0.268779 0.239518 0.280533 0.225245 0.258364 0.232056 0.268746 0.268779 0.317774 0.280533 0.337572 0.258364 0.301068 0.268746 0.317734 0.317774 0.385228 0.337572 0.421363 0.301068 0.356685 0.317734 0.385194 0.385228 0.479909 0.421363 0.555238 0.356685 0.427381 0.385194 0.479903 0.479909 0.600916 0.555238 0.787095 0.427381 0.505578 0.479903 0.600999 0.600916 0.693995 0.787095 1.10327 0.505578 0.564061 0.600999 0.694219 0.693995 0.696165 1.10327 1.10599 0.564061 0.565022 0.694219 0.696351 0.696165 0.606246 1.10599 0.805802 0.565022 0.508378 0.696351 0.606111 0.184917 0.208789 0.186118 0.210532 0.181424 0.203782 0.182563 0.205406 0.208789 0.239518 0.210532 0.242142 0.203782 0.232056 0.205406 0.234459 0.239518 0.280533 0.242142 0.284835 0.232056 0.268746 0.234459 0.272476 0.280533 0.337572 0.284835 0.345172 0.268746 0.317734 0.272476 0.323836 0.337572 0.421363 0.345172 0.434996 0.317734 0.385194 0.323836 0.396092 0.421363 0.555238 0.434996 0.585353 0.385194 0.479903 0.396092 0.50139 0.555238 0.787095 0.585353 0.881858 0.479903 0.600999 0.50139 0.645231 0.787095 1.10327 0.881858 1.42727 0.600999 0.694219 0.645231 0.745686 1.10327 1.10599 1.42727 1.42955 0.694219 0.696351 0.745686 0.7482 1.10599 0.805802 1.42955 0.900872 0.696351 0.606111 0.7482 0.652154 0.186118 0.210532 0.184917 0.208789 0.182563 0.205406 0.181424 0.203782 0.210532 0.242142 0.208789 0.239518 0.205406 0.234459 0.203782 0.232056 0.242142 0.284835 0.239518 0.280533 0.234459 0.272476 0.232056 0.268746 0.284835 0.345172 0.280533 0.337572 0.272476 0.323836 0.268746 0.317734 0.345172 0.434996 0.337572 0.421363 0.323836 0.396092 0.317734 0.385194 0.434996 0.585353 0.421363 0.555239 0.396092 0.50139 0.385194 0.479904 0.585353 0.881858 0.555239 0.787107 0.50139 0.645231 0.479904 0.600993 0.881858 1.42727 0.787107 1.10319 0.645231 0.745686 0.600993 0.694213 1.42727 1.42955 1.10319 1.10589 0.745686 0.7482 0.694213 0.696346 1.42955 0.900872 1.10589 0.805806 0.7482 0.652154 0.696346 0.606099 0.184917 0.208789 0.181434 0.203793 0.181424 0.203782 0.17812 0.199115 0.208789 0.239518 0.203793 0.232076 0.203782 0.232056 0.199115 0.225245 0.239518 0.280533 0.232076 0.26878 0.232056 0.268746 0.225245 0.258364 0.280533 0.337572 0.26878 0.317775 0.268746 0.317734 0.258364 0.301068 0.337572 0.421363 0.317775 0.385228 0.317734 0.385194 0.301068 0.356686 0.421363 0.555239 0.385228 0.479911 0.385194 0.479904 0.356686 0.42738 0.555239 0.787107 0.479911 0.600916 0.479904 0.600993 0.42738 0.505576 0.787107 1.10319 0.600916 0.694006 0.600993 0.694213 0.505576 0.564052 1.10319 1.10589 0.694006 0.696178 0.694213 0.696346 0.564052 0.565012 1.10589 0.805806 0.696178 0.606246 0.696346 0.606099 0.565012 0.508373 0.181434 0.203793 0.175993 0.196154 0.17812 0.199115 0.172949 0.191955 0.203793 0.232076 0.196154 0.221002 0.199115 0.225245 0.191955 0.215052 0.232076 0.26878 0.221002 0.252022 0.225245 0.258364 0.215052 0.243328 0.26878 0.317775 0.252022 0.291106 0.258364 0.301068 0.243328 0.277968 0.317775 0.385228 0.291106 0.340154 0.301068 0.356686 0.277968 0.319678 0.385228 0.479911 0.340154 0.398519 0.356686 0.42738 0.319678 0.3667 0.479911 0.600916 0.398519 0.456029 0.42738 0.505576 0.3667 0.411422 0.600916 0.694006 0.456029 0.49323 0.505576 0.564052 0.411422 0.439707 0.694006 0.696178 0.49323 0.493415 0.564052 0.565012 0.439707 0.439793 0.696178 0.606246 0.493415 0.454771 0.565012 0.508373 0.439793 0.411328 0.175993 0.196154 0.169051 0.186671 0.172949 0.191955 0.166337 0.183028 0.196154 0.221002 0.186671 0.207763 0.191955 0.215052 0.183028 0.202776 0.221002 0.252022 0.207763 0.232912 0.215052 0.243328 0.202776 0.225957 0.252022 0.291106 0.232912 0.262608 0.243328 0.277968 0.225957 0.252777 0.291106 0.340154 0.262608 0.296452 0.277968 0.319678 0.252777 0.282581 0.340154 0.398519 0.296452 0.331716 0.319678 0.3667 0.282581 0.312894 0.398519 0.456029 0.331716 0.362411 0.3667 0.411422 0.312894 0.338739 0.456029 0.49323 0.362411 0.380579 0.411422 0.439707 0.338739 0.353811 0.49323 0.493415 0.380579 0.379895 0.439707 0.439793 0.353811 0.353362 0.493415 0.454771 0.379895 0.360258 0.439793 0.411328 0.353362 0.337463 0.169051 0.186671 0.160886 0.176239 0.166337 0.183028 0.158546 0.17316 0.186671 0.207763 0.176239 0.193687 0.183028 0.202776 0.17316 0.18962 0.207763 0.232912 0.193687 0.213593 0.202776 0.225957 0.18962 0.20818 0.232912 0.262608 0.213593 0.235738 0.225957 0.252777 0.20818 0.228547 0.262608 0.296452 0.235738 0.259057 0.252777 0.282581 0.228547 0.249702 0.296452 0.331716 0.259057 0.281225 0.282581 0.312894 0.249702 0.269592 0.331716 0.362411 0.281225 0.298856 0.312894 0.338739 0.269592 0.285309 0.362411 0.380579 0.298856 0.308458 0.338739 0.353811 0.285309 0.293888 0.380579 0.379895 0.308458 0.307791 0.353811 0.353362 0.293888 0.293404 0.379895 0.360258 0.307791 0.295784 0.353362 0.337463 0.293404 0.283071 0.158546 0.17316 0.166337 0.183028 0.154847 0.168348 0.162072 0.177379 0.17316 0.18962 0.183028 0.202775 0.168348 0.183344 0.177379 0.195165 0.18962 0.20818 0.202775 0.225957 0.183344 0.199954 0.195165 0.215561 0.20818 0.228547 0.225957 0.252777 0.199954 0.217803 0.215561 0.238461 0.228547 0.249702 0.252777 0.282581 0.217803 0.235947 0.238461 0.26301 0.249702 0.269592 0.282581 0.312894 0.235947 0.252694 0.26301 0.28706 0.269592 0.285309 0.312894 0.338739 0.252694 0.265756 0.28706 0.306949 0.285309 0.293888 0.338739 0.353811 0.265756 0.272859 0.306949 0.318302 0.293888 0.293404 0.353811 0.353362 0.272859 0.272549 0.318302 0.318016 0.293404 0.283071 0.353362 0.337464 0.272549 0.264326 0.318016 0.306269 0.166337 0.183028 0.172949 0.191955 0.162072 0.177379 0.168185 0.185486 0.183028 0.202775 0.191955 0.215052 0.177379 0.195165 0.185486 0.206067 0.202775 0.225957 0.215052 0.243327 0.195165 0.215561 0.206067 0.230532 0.225957 0.252777 0.243327 0.277967 0.215561 0.238461 0.230532 0.259307 0.252777 0.282581 0.277967 0.319678 0.238461 0.26301 0.259307 0.292056 0.282581 0.312894 0.319678 0.3667 0.26301 0.28706 0.292056 0.326481 0.312894 0.338739 0.3667 0.411422 0.28706 0.306949 0.326481 0.357057 0.338739 0.353811 0.411422 0.439707 0.306949 0.318302 0.357057 0.37569 0.353811 0.353362 0.439707 0.439793 0.318302 0.318016 0.37569 0.37563 0.353362 0.337464 0.439793 0.411329 0.318016 0.306269 0.37563 0.35691 0.172949 0.191955 0.17812 0.199115 0.168185 0.185486 0.172949 0.191946 0.191955 0.215052 0.199115 0.225245 0.185486 0.206067 0.191946 0.21502 0.215052 0.243327 0.225245 0.258364 0.206067 0.230532 0.21502 0.243265 0.243327 0.277967 0.258364 0.301068 0.230532 0.259307 0.243265 0.277885 0.277967 0.319678 0.301068 0.356685 0.259307 0.292056 0.277885 0.319594 0.319678 0.3667 0.356685 0.427381 0.292056 0.326481 0.319594 0.366644 0.3667 0.411422 0.427381 0.505578 0.326481 0.357057 0.366644 0.411422 0.411422 0.439707 0.505578 0.564061 0.357057 0.37569 0.411422 0.439775 0.439707 0.439793 0.564061 0.565022 0.37569 0.37563 0.439775 0.43989 0.439793 0.411329 0.565022 0.508378 0.37563 0.35691 0.43989 0.411396 0.17812 0.199115 0.181424 0.203782 0.172949 0.191946 0.175985 0.196136 0.199115 0.225245 0.203782 0.232056 0.191946 0.21502 0.196136 0.22095 0.225245 0.258364 0.232056 0.268746 0.21502 0.243265 0.22095 0.251927 0.258364 0.301068 0.268746 0.317734 0.243265 0.277885 0.251927 0.290985 0.301068 0.356685 0.317734 0.385194 0.277885 0.319594 0.290985 0.34004 0.356685 0.427381 0.385194 0.479903 0.319594 0.366644 0.34004 0.398464 0.427381 0.505578 0.479903 0.600999 0.366644 0.411422 0.398464 0.456076 0.505578 0.564061 0.600999 0.694219 0.411422 0.439775 0.456076 0.493379 0.564061 0.565022 0.694219 0.696351 0.439775 0.43989 0.493379 0.493589 0.565022 0.508378 0.696351 0.606111 0.43989 0.411396 0.493589 0.45484 0.181424 0.203782 0.182563 0.205406 0.175985 0.196136 0.177029 0.197591 0.203782 0.232056 0.205406 0.234459 0.196136 0.22095 0.197591 0.223031 0.232056 0.268746 0.234459 0.272476 0.22095 0.251927 0.223031 0.25501 0.268746 0.317734 0.272476 0.323836 0.251927 0.290985 0.25501 0.295743 0.317734 0.385194 0.323836 0.396092 0.290985 0.34004 0.295743 0.347672 0.385194 0.479903 0.396092 0.50139 0.34004 0.398464 0.347672 0.410868 0.479903 0.600999 0.50139 0.645231 0.398464 0.456076 0.410868 0.473348 0.600999 0.694219 0.645231 0.745686 0.456076 0.493379 0.473348 0.5153 0.694219 0.696351 0.745686 0.7482 0.493379 0.493589 0.5153 0.515617 0.696351 0.606111 0.7482 0.652154 0.493589 0.45484 0.515617 0.470804 0.182563 0.205406 0.181424 0.203782 0.177029 0.197591 0.175985 0.196136 0.205406 0.234459 0.203782 0.232056 0.197591 0.223031 0.196136 0.22095 0.234459 0.272476 0.232056 0.268746 0.223031 0.25501 0.22095 0.251927 0.272476 0.323836 0.268746 0.317734 0.25501 0.295743 0.251927 0.290985 0.323836 0.396092 0.317734 0.385194 0.295743 0.347672 0.290985 0.34004 0.396092 0.50139 0.385194 0.479904 0.347672 0.410868 0.34004 0.398463 0.50139 0.645231 0.479904 0.600993 0.410868 0.473348 0.398463 0.456075 0.645231 0.745686 0.600993 0.694213 0.473348 0.5153 0.456075 0.493377 0.745686 0.7482 0.694213 0.696346 0.5153 0.515617 0.493377 0.493587 0.7482 0.652154 0.696346 0.606099 0.515617 0.470804 0.493587 0.454838 0.181424 0.203782 0.17812 0.199115 0.175985 0.196136 0.172949 0.191946 0.203782 0.232056 0.199115 0.225245 0.196136 0.22095 0.191946 0.21502 0.232056 0.268746 0.225245 0.258364 0.22095 0.251927 0.21502 0.243265 0.268746 0.317734 0.258364 0.301068 0.251927 0.290985 0.243265 0.277885 0.317734 0.385194 0.301068 0.356686 0.290985 0.34004 0.277885 0.319594 0.385194 0.479904 0.356686 0.42738 0.34004 0.398463 0.319594 0.366644 0.479904 0.600993 0.42738 0.505576 0.398463 0.456075 0.366644 0.41142 0.600993 0.694213 0.505576 0.564052 0.456075 0.493377 0.41142 0.439773 0.694213 0.696346 0.564052 0.565012 0.493377 0.493587 0.439773 0.439887 0.696346 0.606099 0.565012 0.508373 0.493587 0.454838 0.439887 0.411393 0.17812 0.199115 0.172949 0.191955 0.172949 0.191946 0.168186 0.185486 0.199115 0.225245 0.191955 0.215052 0.191946 0.21502 0.185486 0.206067 0.225245 0.258364 0.215052 0.243328 0.21502 0.243265 0.206067 0.230532 0.258364 0.301068 0.243328 0.277968 0.243265 0.277885 0.230532 0.259307 0.301068 0.356686 0.277968 0.319678 0.277885 0.319594 0.259307 0.292056 0.356686 0.42738 0.319678 0.3667 0.319594 0.366644 0.292056 0.326481 0.42738 0.505576 0.3667 0.411422 0.366644 0.41142 0.326481 0.357056 0.505576 0.564052 0.411422 0.439707 0.41142 0.439773 0.357056 0.375689 0.564052 0.565012 0.439707 0.439793 0.439773 0.439887 0.375689 0.375628 0.565012 0.508373 0.439793 0.411328 0.439887 0.411393 0.375628 0.356909 0.172949 0.191955 0.166337 0.183028 0.168186 0.185486 0.162072 0.177379 0.191955 0.215052 0.183028 0.202776 0.185486 0.206067 0.177379 0.195165 0.215052 0.243328 0.202776 0.225957 0.206067 0.230532 0.195165 0.215561 0.243328 0.277968 0.225957 0.252777 0.230532 0.259307 0.215561 0.238461 0.277968 0.319678 0.252777 0.282581 0.259307 0.292056 0.238461 0.26301 0.319678 0.3667 0.282581 0.312894 0.292056 0.326481 0.26301 0.28706 0.3667 0.411422 0.312894 0.338739 0.326481 0.357056 0.28706 0.306949 0.411422 0.439707 0.338739 0.353811 0.357056 0.375689 0.306949 0.318301 0.439707 0.439793 0.353811 0.353362 0.375689 0.375628 0.318301 0.318016 0.439793 0.411328 0.353362 0.337463 0.375628 0.356909 0.318016 0.306269 0.166337 0.183028 0.158546 0.17316 0.162072 0.177379 0.154847 0.168348 0.183028 0.202776 0.17316 0.18962 0.177379 0.195165 0.168348 0.183344 0.202776 0.225957 0.18962