<?xml version="1.0" ?> 
<!-- 
# vtk DataFile Version 3.0
#This file was generated by the deal.II library on 16:48:10 at 2019/11/27
-->
<VTKFile type="UnstructuredGrid" version="0.1" byte_order="LittleEndian">
<UnstructuredGrid>
<Piece NumberOfPoints="9512" NumberOfCells="1189" >
  <Points>
    <DataArray type="Float32" NumberOfComponents="3" format="ascii">
-50 -50 0
-40 -50 0
-50 -40 0
-40 -40 0
-50 -50 10
-40 -50 10
-50 -40 10
-40 -40 10
-40 -50 0
-30 -50 0
-40 -40 0
-30 -40 0
-40 -50 10
-30 -50 10
-40 -40 10
-30 -40 10
-30 -50 0
-20 -50 0
-30 -40 0
-20 -40 0
-30 -50 10
-20 -50 10
-30 -40 10
-20 -40 10
-20 -50 0
-10 -50 0
-20 -40 0
-10 -40 0
-20 -50 10
-10 -50 10
-20 -40 10
-10 -40 10
-10 -50 0
0 -50 0
-10 -40 0
0 -40 0
-10 -50 10
0 -50 10
-10 -40 10
0 -40 10
0 -50 0
10 -50 0
0 -40 0
10 -40 0
0 -50 10
10 -50 10
0 -40 10
10 -40 10
10 -50 0
20 -50 0
10 -40 0
20 -40 0
10 -50 10
20 -50 10
10 -40 10
20 -40 10
20 -50 0
30 -50 0
20 -40 0
30 -40 0
20 -50 10
30 -50 10
20 -40 10
30 -40 10
30 -50 0
40 -50 0
30 -40 0
40 -40 0
30 -50 10
40 -50 10
30 -40 10
40 -40 10
40 -50 0
50 -50 0
40 -40 0
50 -40 0
40 -50 10
50 -50 10
40 -40 10
50 -40 10
-50 -40 0
-40 -40 0
-50 -30 0
-40 -30 0
-50 -40 10
-40 -40 10
-50 -30 10
-40 -30 10
-40 -40 0
-30 -40 0
-40 -30 0
-30 -30 0
-40 -40 10
-30 -40 10
-40 -30 10
-30 -30 10
-30 -40 0
-20 -40 0
-30 -30 0
-20 -30 0
-30 -40 10
-20 -40 10
-30 -30 10
-20 -30 10
-20 -40 0
-10 -40 0
-20 -30 0
-10 -30 0
-20 -40 10
-10 -40 10
-20 -30 10
-10 -30 10
-10 -40 0
0 -40 0
-10 -30 0
0 -30 0
-10 -40 10
0 -40 10
-10 -30 10
0 -30 10
0 -40 0
10 -40 0
0 -30 0
10 -30 0
0 -40 10
10 -40 10
0 -30 10
10 -30 10
10 -40 0
20 -40 0
10 -30 0
20 -30 0
10 -40 10
20 -40 10
10 -30 10
20 -30 10
20 -40 0
30 -40 0
20 -30 0
30 -30 0
20 -40 10
30 -40 10
20 -30 10
30 -30 10
30 -40 0
40 -40 0
30 -30 0
40 -30 0
30 -40 10
40 -40 10
30 -30 10
40 -30 10
40 -40 0
50 -40 0
40 -30 0
50 -30 0
40 -40 10
50 -40 10
40 -30 10
50 -30 10
-50 -30 0
-40 -30 0
-50 -20 0
-40 -20 0
-50 -30 10
-40 -30 10
-50 -20 10
-40 -20 10
-40 -30 0
-30 -30 0
-40 -20 0
-30 -20 0
-40 -30 10
-30 -30 10
-40 -20 10
-30 -20 10
-30 -30 0
-20 -30 0
-30 -20 0
-20 -20 0
-30 -30 10
-20 -30 10
-30 -20 10
-20 -20 10
-20 -30 0
-10 -30 0
-20 -20 0
-10 -20 0
-20 -30 10
-10 -30 10
-20 -20 10
-10 -20 10
-10 -30 0
0 -30 0
-10 -20 0
0 -20 0
-10 -30 10
0 -30 10
-10 -20 10
0 -20 10
0 -30 0
10 -30 0
0 -20 0
10 -20 0
0 -30 10
10 -30 10
0 -20 10
10 -20 10
10 -30 0
20 -30 0
10 -20 0
20 -20 0
10 -30 10
20 -30 10
10 -20 10
20 -20 10
20 -30 0
30 -30 0
20 -20 0
30 -20 0
20 -30 10
30 -30 10
20 -20 10
30 -20 10
30 -30 0
40 -30 0
30 -20 0
40 -20 0
30 -30 10
40 -30 10
30 -20 10
40 -20 10
40 -30 0
50 -30 0
40 -20 0
50 -20 0
40 -30 10
50 -30 10
40 -20 10
50 -20 10
-50 -20 0
-40 -20 0
-50 -10 0
-40 -10 0
-50 -20 10
-40 -20 10
-50 -10 10
-40 -10 10
-40 -20 0
-30 -20 0
-40 -10 0
-30 -10 0
-40 -20 10
-30 -20 10
-40 -10 10
-30 -10 10
-30 -20 0
-20 -20 0
-30 -10 0
-20 -10 0
-30 -20 10
-20 -20 10
-30 -10 10
-20 -10 10
-20 -20 0
-10 -20 0
-20 -10 0
-10 -10 0
-20 -20 10
-10 -20 10
-20 -10 10
-10 -10 10
-10 -20 0
0 -20 0
-10 -10 0
0 -10 0
-10 -20 10
0 -20 10
-10 -10 10
0 -10 10
0 -20 0
10 -20 0
0 -10 0
10 -10 0
0 -20 10
10 -20 10
0 -10 10
10 -10 10
10 -20 0
20 -20 0
10 -10 0
20 -10 0
10 -20 10
20 -20 10
10 -10 10
20 -10 10
20 -20 0
30 -20 0
20 -10 0
30 -10 0
20 -20 10
30 -20 10
20 -10 10
30 -10 10
30 -20 0
40 -20 0
30 -10 0
40 -10 0
30 -20 10
40 -20 10
30 -10 10
40 -10 10
40 -20 0
50 -20 0
40 -10 0
50 -10 0
40 -20 10
50 -20 10
40 -10 10
50 -10 10
-50 -10 0
-40 -10 0
-50 0 0
-40 0 0
-50 -10 10
-40 -10 10
-50 0 10
-40 0 10
-40 -10 0
-30 -10 0
-40 0 0
-30 0 0
-40 -10 10
-30 -10 10
-40 0 10
-30 0 10
-30 -10 0
-20 -10 0
-30 0 0
-20 0 0
-30 -10 10
-20 -10 10
-30 0 10
-20 0 10
40 -10 0
50 -10 0
40 0 0
50 0 0
40 -10 10
50 -10 10
40 0 10
50 0 10
-50 0 0
-40 0 0
-50 10 0
-40 10 0
-50 0 10
-40 0 10
-50 10 10
-40 10 10
-40 0 0
-30 0 0
-40 10 0
-30 10 0
-40 0 10
-30 0 10
-40 10 10
-30 10 10
-30 0 0
-20 0 0
-30 10 0
-20 10 0
-30 0 10
-20 0 10
-30 10 10
-20 10 10
40 0 0
50 0 0
40 10 0
50 10 0
40 0 10
50 0 10
40 10 10
50 10 10
-50 10 0
-40 10 0
-50 20 0
-40 20 0
-50 10 10
-40 10 10
-50 20 10
-40 20 10
-40 10 0
-30 10 0
-40 20 0
-30 20 0
-40 10 10
-30 10 10
-40 20 10
-30 20 10
-30 10 0
-20 10 0
-30 20 0
-20 20 0
-30 10 10
-20 10 10
-30 20 10
-20 20 10
-20 10 0
-10 10 0
-20 20 0
-10 20 0
-20 10 10
-10 10 10
-20 20 10
-10 20 10
-10 10 0
0 10 0
-10 20 0
0 20 0
-10 10 10
0 10 10
-10 20 10
0 20 10
0 10 0
10 10 0
0 20 0
10 20 0
0 10 10
10 10 10
0 20 10
10 20 10
10 10 0
20 10 0
10 20 0
20 20 0
10 10 10
20 10 10
10 20 10
20 20 10
20 10 0
30 10 0
20 20 0
30 20 0
20 10 10
30 10 10
20 20 10
30 20 10
30 10 0
40 10 0
30 20 0
40 20 0
30 10 10
40 10 10
30 20 10
40 20 10
40 10 0
50 10 0
40 20 0
50 20 0
40 10 10
50 10 10
40 20 10
50 20 10
-50 20 0
-40 20 0
-50 30 0
-40 30 0
-50 20 10
-40 20 10
-50 30 10
-40 30 10
-40 20 0
-30 20 0
-40 30 0
-30 30 0
-40 20 10
-30 20 10
-40 30 10
-30 30 10
-30 20 0
-20 20 0
-30 30 0
-20 30 0
-30 20 10
-20 20 10
-30 30 10
-20 30 10
-20 20 0
-10 20 0
-20 30 0
-10 30 0
-20 20 10
-10 20 10
-20 30 10
-10 30 10
-10 20 0
0 20 0
-10 30 0
0 30 0
-10 20 10
0 20 10
-10 30 10
0 30 10
0 20 0
10 20 0
0 30 0
10 30 0
0 20 10
10 20 10
0 30 10
10 30 10
10 20 0
20 20 0
10 30 0
20 30 0
10 20 10
20 20 10
10 30 10
20 30 10
20 20 0
30 20 0
20 30 0
30 30 0
20 20 10
30 20 10
20 30 10
30 30 10
30 20 0
40 20 0
30 30 0
40 30 0
30 20 10
40 20 10
30 30 10
40 30 10
40 20 0
50 20 0
40 30 0
50 30 0
40 20 10
50 20 10
40 30 10
50 30 10
-50 30 0
-40 30 0
-50 40 0
-40 40 0
-50 30 10
-40 30 10
-50 40 10
-40 40 10
-40 30 0
-30 30 0
-40 40 0
-30 40 0
-40 30 10
-30 30 10
-40 40 10
-30 40 10
-30 30 0
-20 30 0
-30 40 0
-20 40 0
-30 30 10
-20 30 10
-30 40 10
-20 40 10
-20 30 0
-10 30 0
-20 40 0
-10 40 0
-20 30 10
-10 30 10
-20 40 10
-10 40 10
-10 30 0
0 30 0
-10 40 0
0 40 0
-10 30 10
0 30 10
-10 40 10
0 40 10
0 30 0
10 30 0
0 40 0
10 40 0
0 30 10
10 30 10
0 40 10
10 40 10
10 30 0
20 30 0
10 40 0
20 40 0
10 30 10
20 30 10
10 40 10
20 40 10
20 30 0
30 30 0
20 40 0
30 40 0
20 30 10
30 30 10
20 40 10
30 40 10
30 30 0
40 30 0
30 40 0
40 40 0
30 30 10
40 30 10
30 40 10
40 40 10
40 30 0
50 30 0
40 40 0
50 40 0
40 30 10
50 30 10
40 40 10
50 40 10
-50 40 0
-40 40 0
-50 50 0
-40 50 0
-50 40 10
-40 40 10
-50 50 10
-40 50 10
-40 40 0
-30 40 0
-40 50 0
-30 50 0
-40 40 10
-30 40 10
-40 50 10
-30 50 10
-30 40 0
-20 40 0
-30 50 0
-20 50 0
-30 40 10
-20 40 10
-30 50 10
-20 50 10
-20 40 0
-10 40 0
-20 50 0
-10 50 0
-20 40 10
-10 40 10
-20 50 10
-10 50 10
-10 40 0
0 40 0
-10 50 0
0 50 0
-10 40 10
0 40 10
-10 50 10
0 50 10
0 40 0
10 40 0
0 50 0
10 50 0
0 40 10
10 40 10
0 50 10
10 50 10
10 40 0
20 40 0
10 50 0
20 50 0
10 40 10
20 40 10
10 50 10
20 50 10
20 40 0
30 40 0
20 50 0
30 50 0
20 40 10
30 40 10
20 50 10
30 50 10
30 40 0
40 40 0
30 50 0
40 50 0
30 40 10
40 40 10
30 50 10
40 50 10
40 40 0
50 40 0
40 50 0
50 50 0
40 40 10
50 40 10
40 50 10
50 50 10
-50 -50 10
-40 -50 10
-50 -40 10
-40 -40 10
-50 -50 20
-40 -50 20
-50 -40 20
-40 -40 20
-40 -50 10
-30 -50 10
-40 -40 10
-30 -40 10
-40 -50 20
-30 -50 20
-40 -40 20
-30 -40 20
-30 -50 10
-20 -50 10
-30 -40 10
-20 -40 10
-30 -50 20
-20 -50 20
-30 -40 20
-20 -40 20
-20 -50 10
-10 -50 10
-20 -40 10
-10 -40 10
-20 -50 20
-10 -50 20
-20 -40 20
-10 -40 20
-10 -50 10
0 -50 10
-10 -40 10
0 -40 10
-10 -50 20
0 -50 20
-10 -40 20
0 -40 20
0 -50 10
10 -50 10
0 -40 10
10 -40 10
0 -50 20
10 -50 20
0 -40 20
10 -40 20
10 -50 10
20 -50 10
10 -40 10
20 -40 10
10 -50 20
20 -50 20
10 -40 20
20 -40 20
20 -50 10
30 -50 10
20 -40 10
30 -40 10
20 -50 20
30 -50 20
20 -40 20
30 -40 20
30 -50 10
40 -50 10
30 -40 10
40 -40 10
30 -50 20
40 -50 20
30 -40 20
40 -40 20
40 -50 10
50 -50 10
40 -40 10
50 -40 10
40 -50 20
50 -50 20
40 -40 20
50 -40 20
-50 -40 10
-40 -40 10
-50 -30 10
-40 -30 10
-50 -40 20
-40 -40 20
-50 -30 20
-40 -30 20
-40 -40 10
-30 -40 10
-40 -30 10
-30 -30 10
-40 -40 20
-30 -40 20
-40 -30 20
-30 -30 20
-30 -40 10
-20 -40 10
-30 -30 10
-20 -30 10
-30 -40 20
-20 -40 20
-30 -30 20
-20 -30 20
-20 -40 10
-10 -40 10
-20 -30 10
-10 -30 10
-20 -40 20
-10 -40 20
-20 -30 20
-10 -30 20
-10 -40 10
0 -40 10
-10 -30 10
0 -30 10
-10 -40 20
0 -40 20
-10 -30 20
0 -30 20
0 -40 10
10 -40 10
0 -30 10
10 -30 10
0 -40 20
10 -40 20
0 -30 20
10 -30 20
10 -40 10
20 -40 10
10 -30 10
20 -30 10
10 -40 20
20 -40 20
10 -30 20
20 -30 20
20 -40 10
30 -40 10
20 -30 10
30 -30 10
20 -40 20
30 -40 20
20 -30 20
30 -30 20
30 -40 10
40 -40 10
30 -30 10
40 -30 10
30 -40 20
40 -40 20
30 -30 20
40 -30 20
40 -40 10
50 -40 10
40 -30 10
50 -30 10
40 -40 20
50 -40 20
40 -30 20
50 -30 20
-50 -30 10
-40 -30 10
-50 -20 10
-40 -20 10
-50 -30 20
-40 -30 20
-50 -20 20
-40 -20 20
-40 -30 10
-30 -30 10
-40 -20 10
-30 -20 10
-40 -30 20
-30 -30 20
-40 -20 20
-30 -20 20
-30 -30 10
-20 -30 10
-30 -20 10
-20 -20 10
-30 -30 20
-20 -30 20
-30 -20 20
-20 -20 20
-20 -30 10
-10 -30 10
-20 -20 10
-10 -20 10
-20 -30 20
-10 -30 20
-20 -20 20
-10 -20 20
-10 -30 10
0 -30 10
-10 -20 10
0 -20 10
-10 -30 20
0 -30 20
-10 -20 20
0 -20 20
0 -30 10
10 -30 10
0 -20 10
10 -20 10
0 -30 20
10 -30 20
0 -20 20
10 -20 20
10 -30 10
20 -30 10
10 -20 10
20 -20 10
10 -30 20
20 -30 20
10 -20 20
20 -20 20
20 -30 10
30 -30 10
20 -20 10
30 -20 10
20 -30 20
30 -30 20
20 -20 20
30 -20 20
30 -30 10
40 -30 10
30 -20 10
40 -20 10
30 -30 20
40 -30 20
30 -20 20
40 -20 20
40 -30 10
50 -30 10
40 -20 10
50 -20 10
40 -30 20
50 -30 20
40 -20 20
50 -20 20
-50 -20 10
-40 -20 10
-50 -10 10
-40 -10 10
-50 -20 20
-40 -20 20
-50 -10 20
-40 -10 20
-40 -20 10
-30 -20 10
-40 -10 10
-30 -10 10
-40 -20 20
-30 -20 20
-40 -10 20
-30 -10 20
-30 -20 10
-20 -20 10
-30 -10 10
-20 -10 10
-30 -20 20
-20 -20 20
-30 -10 20
-20 -10 20
-20 -20 10
-10 -20 10
-20 -10 10
-10 -10 10
-20 -20 20
-10 -20 20
-20 -10 20
-10 -10 20
-10 -20 10
0 -20 10
-10 -10 10
0 -10 10
-10 -20 20
0 -20 20
-10 -10 20
0 -10 20
0 -20 10
10 -20 10
0 -10 10
10 -10 10
0 -20 20
10 -20 20
0 -10 20
10 -10 20
10 -20 10
20 -20 10
10 -10 10
20 -10 10
10 -20 20
20 -20 20
10 -10 20
20 -10 20
[...]
  <PointData Scalars="scalars">
    <DataArray type="Float32" Name="u" format="ascii">
0.176521 0.194577 0.187531 0.20894 0.17548 0.193176 0.186281 0.207212 0.194577 0.214921 0.20894 0.234751 0.193176 0.213039 0.207212 0.23231 0.214921 0.237657 0.234751 0.265429 0.213039 0.235131 0.23231 0.261927 0.237657 0.261702 0.265429 0.300712 0.235131 0.258393 0.261927 0.295679 0.261702 0.284675 0.300712 0.337764 0.258393 0.280528 0.295679 0.330858 0.284675 0.303029 0.337764 0.370384 0.280528 0.298206 0.330858 0.361528 0.303029 0.313316 0.370384 0.389843 0.298206 0.30808 0.361528 0.379873 0.313316 0.313306 0.389843 0.389955 0.30808 0.308074 0.379873 0.37997 0.313306 0.302758 0.389955 0.370432 0.308074 0.297971 0.37997 0.361592 0.302758 0.282261 0.370432 0.337206 0.297971 0.278362 0.361592 0.330488 0.187531 0.20894 0.197143 0.222522 0.186281 0.207212 0.195701 0.220448 0.20894 0.234751 0.222522 0.254444 0.207212 0.23231 0.220448 0.251366 0.234751 0.265429 0.254444 0.295086 0.23231 0.261927 0.251366 0.290337 0.265429 0.300712 0.295086 0.346842 0.261927 0.295679 0.290337 0.339235 0.300712 0.337764 0.346842 0.409752 0.295679 0.330858 0.339235 0.397406 0.337764 0.370384 0.409752 0.47185 0.330858 0.361528 0.397406 0.454687 0.370384 0.389843 0.47185 0.513446 0.361528 0.379873 0.454687 0.491685 0.389843 0.389955 0.513446 0.513769 0.379873 0.37997 0.491685 0.49204 0.389955 0.370432 0.513769 0.473083 0.37997 0.361592 0.49204 0.455774 0.370432 0.337206 0.473083 0.411558 0.361592 0.330488 0.455774 0.399143 0.197143 0.222522 0.204859 0.233865 0.195701 0.220448 0.203254 0.231472 0.222522 0.254444 0.233865 0.271793 0.220448 0.251366 0.231472 0.268071 0.254444 0.295086 0.271793 0.323006 0.251366 0.290337 0.268071 0.316917 0.295086 0.346842 0.323006 0.39502 0.290337 0.339235 0.316917 0.384154 0.346842 0.409752 0.39502 0.499916 0.339235 0.397406 0.384154 0.478506 0.409752 0.47185 0.499916 0.642999 0.397406 0.454687 0.478506 0.598988 0.47185 0.513446 0.642999 0.742368 0.454687 0.491685 0.598988 0.691253 0.513446 0.513769 0.742368 0.743618 0.491685 0.49204 0.691253 0.691992 0.513769 0.473083 0.743618 0.644886 0.49204 0.455774 0.691992 0.601208 0.473083 0.411558 0.644886 0.50489 0.455774 0.399143 0.601208 0.48325 0.204859 0.233865 0.209888 0.241478 0.203254 0.231472 0.208169 0.238868 0.233865 0.271793 0.241478 0.284072 0.231472 0.268071 0.238868 0.27978 0.271793 0.323006 0.284072 0.344231 0.268071 0.316917 0.27978 0.336648 0.323006 0.39502 0.344231 0.433764 0.316917 0.384154 0.336648 0.420168 0.39502 0.499916 0.433764 0.583611 0.384154 0.478506 0.420168 0.553594 0.499916 0.642999 0.583611 0.879155 0.478506 0.598988 0.553594 0.784677 0.642999 0.742368 0.879155 1.42096 0.598988 0.691253 0.784677 1.09928 0.742368 0.743618 1.42096 1.41855 0.691253 0.691992 1.09928 1.09927 0.743618 0.644886 1.41855 0.888253 0.691992 0.601208 1.09927 0.787875 0.644886 0.50489 0.888253 0.588159 0.601208 0.48325 0.787875 0.557899 0.209888 0.241478 0.211632 0.244199 0.208169 0.238868 0.209881 0.241472 0.241478 0.284072 0.244199 0.28831 0.238868 0.27978 0.241472 0.284065 0.284072 0.344231 0.28831 0.354703 0.27978 0.336648 0.284065 0.344222 0.888253 0.588159 1.05043 0.614626 0.787875 0.557899 0.888255 0.58807 0.211632 0.244199 0.209888 0.241478 0.209881 0.241472 0.208169 0.238868 0.244199 0.28831 0.241478 0.284073 0.241472 0.284065 0.238868 0.27978 0.28831 0.354703 0.284073 0.344231 0.284065 0.344222 0.27978 0.336648 1.05043 0.614626 0.888286 0.588161 0.888255 0.58807 0.787877 0.557903 0.209888 0.241478 0.204859 0.233865 0.208169 0.238868 0.203254 0.231472 0.241478 0.284073 0.233865 0.271793 0.238868 0.27978 0.231472 0.268071 0.284073 0.344231 0.271793 0.323006 0.27978 0.336648 0.268071 0.316917 0.344231 0.433765 0.323006 0.39502 0.336648 0.420169 0.316917 0.384154 0.433765 0.583614 0.39502 0.499918 0.420169 0.553594 0.384154 0.478508 0.583614 0.879166 0.499918 0.643007 0.553594 0.784689 0.478508 0.598988 0.879166 1.42113 0.643007 0.742366 0.784689 1.09919 0.598988 0.691263 1.42113 1.41873 0.742366 0.743615 1.09919 1.09917 0.691263 0.692004 1.41873 0.888286 0.743615 0.644894 1.09917 0.787877 0.692004 0.601209 0.888286 0.588161 0.644894 0.504895 0.787877 0.557903 0.601209 0.483253 0.204859 0.233865 0.197143 0.222522 0.203254 0.231472 0.195701 0.220448 0.233865 0.271793 0.222522 0.254444 0.231472 0.268071 0.220448 0.251367 0.271793 0.323006 0.254444 0.295087 0.268071 0.316917 0.251367 0.290337 0.323006 0.39502 0.295087 0.346843 0.316917 0.384154 0.290337 0.339235 0.39502 0.499918 0.346843 0.409753 0.384154 0.478508 0.339235 0.397406 0.499918 0.643007 0.409753 0.471851 0.478508 0.598988 0.397406 0.454688 0.643007 0.742366 0.471851 0.513449 0.598988 0.691263 0.454688 0.491685 0.742366 0.743615 0.513449 0.513772 0.691263 0.692004 0.491685 0.49204 0.743615 0.644894 0.513772 0.473085 0.692004 0.601209 0.49204 0.455776 0.644894 0.504895 0.473085 0.41156 0.601209 0.483253 0.455776 0.399144 0.197143 0.222522 0.187531 0.20894 0.195701 0.220448 0.186281 0.207212 0.222522 0.254444 0.20894 0.234752 0.220448 0.251367 0.207212 0.23231 0.254444 0.295087 0.234752 0.265429 0.251367 0.290337 0.23231 0.261927 0.295087 0.346843 0.265429 0.300713 0.290337 0.339235 0.261927 0.295679 0.346843 0.409753 0.300713 0.337765 0.339235 0.397406 0.295679 0.330858 0.409753 0.471851 0.337765 0.370384 0.397406 0.454688 0.330858 0.361529 0.471851 0.513449 0.370384 0.389844 0.454688 0.491685 0.361529 0.379874 0.513449 0.513772 0.389844 0.389955 0.491685 0.49204 0.379874 0.37997 0.513772 0.473085 0.389955 0.370433 0.49204 0.455776 0.37997 0.361593 0.473085 0.41156 0.370433 0.337207 0.455776 0.399144 0.361593 0.330489 0.187531 0.20894 0.176521 0.194577 0.186281 0.207212 0.17548 0.193176 0.20894 0.234752 0.194577 0.214922 0.207212 0.23231 0.193176 0.21304 0.234752 0.265429 0.214922 0.237657 0.23231 0.261927 0.21304 0.235132 0.265429 0.300713 0.237657 0.261702 0.261927 0.295679 0.235132 0.258393 0.300713 0.337765 0.261702 0.284675 0.295679 0.330858 0.258393 0.280528 0.337765 0.370384 0.284675 0.30303 0.330858 0.361529 0.280528 0.298207 0.370384 0.389844 0.30303 0.313316 0.361529 0.379874 0.298207 0.30808 0.389844 0.389955 0.313316 0.313307 0.379874 0.37997 0.30808 0.308074 0.389955 0.370433 0.313307 0.302758 0.37997 0.361593 0.308074 0.297971 0.370433 0.337207 0.302758 0.282262 0.361593 0.330489 0.297971 0.278362 0.17548 0.193176 0.186281 0.207212 0.172454 0.189135 0.182665 0.202256 0.193176 0.213039 0.207212 0.23231 0.189135 0.207656 0.202256 0.225389 0.213039 0.235131 0.23231 0.261927 0.207656 0.227975 0.225389 0.252139 0.235131 0.258393 0.261927 0.295679 0.227975 0.249084 0.252139 0.281869 0.258393 0.280528 0.295679 0.330858 0.249084 0.268952 0.281869 0.312121 0.280528 0.298206 0.330858 0.361528 0.268952 0.284716 0.312121 0.337962 0.298206 0.30808 0.361528 0.379873 0.284716 0.29351 0.337962 0.353192 0.30808 0.308074 0.379873 0.37997 0.29351 0.293504 0.353192 0.353268 0.308074 0.297971 0.37997 0.361592 0.293504 0.284554 0.353268 0.338023 0.297971 0.278362 0.361592 0.330488 0.284554 0.267353 0.338023 0.31205 0.186281 0.207212 0.195701 0.220448 0.182665 0.202256 0.191543 0.214535 0.207212 0.23231 0.220448 0.251366 0.202256 0.225389 0.214535 0.242713 0.23231 0.261927 0.251366 0.290337 0.225389 0.252139 0.242713 0.277254 0.261927 0.295679 0.290337 0.339235 0.252139 0.281869 0.277254 0.318842 0.295679 0.330858 0.339235 0.397406 0.281869 0.312121 0.318842 0.365721 0.330858 0.361528 0.397406 0.454687 0.312121 0.337962 0.365721 0.410297 0.361528 0.379873 0.454687 0.491685 0.337962 0.353192 0.410297 0.438505 0.379873 0.37997 0.491685 0.49204 0.353192 0.353268 0.438505 0.438775 0.37997 0.361592 0.49204 0.455774 0.353268 0.338023 0.438775 0.411147 0.361592 0.330488 0.455774 0.399143 0.338023 0.31205 0.411147 0.367151 0.195701 0.220448 0.203254 0.231472 0.191543 0.214535 0.198635 0.224685 0.220448 0.251366 0.231472 0.268071 0.214535 0.242713 0.224685 0.257705 0.251366 0.290337 0.268071 0.316917 0.242713 0.277254 0.257705 0.300279 0.290337 0.339235 0.316917 0.384154 0.277254 0.318842 0.300279 0.35572 0.339235 0.397406 0.384154 0.478506 0.318842 0.365721 0.35572 0.426169 0.397406 0.454687 0.478506 0.598988 0.365721 0.410297 0.426169 0.504022 0.454687 0.491685 0.598988 0.691253 0.410297 0.438505 0.504022 0.562034 0.491685 0.49204 0.691253 0.691992 0.438505 0.438775 0.562034 0.562507 0.49204 0.455774 0.691992 0.601208 0.438775 0.411147 0.562507 0.505588 0.455774 0.399143 0.601208 0.48325 0.411147 0.367151 0.505588 0.429518 0.203254 0.231472 0.208169 0.238868 0.198635 0.224685 0.203239 0.231457 0.231472 0.268071 0.238868 0.27978 0.224685 0.257705 0.231457 0.268049 0.268071 0.316917 0.27978 0.336648 0.257705 0.300279 0.268049 0.316888 0.316917 0.384154 0.336648 0.420168 0.300279 0.35572 0.316888 0.384129 0.384154 0.478506 0.420168 0.553594 0.35572 0.426169 0.384129 0.478507 0.478506 0.598988 0.553594 0.784677 0.426169 0.504022 0.478507 0.599071 0.598988 0.691253 0.784677 1.09928 0.504022 0.562034 0.599071 0.691476 0.691253 0.691992 1.09928 1.09927 0.562034 0.562507 0.691476 0.692213 0.691992 0.601208 1.09927 0.787875 0.562507 0.505588 0.692213 0.601289 0.601208 0.48325 0.787875 0.557899 0.505588 0.429518 0.601289 0.483169 0.208169 0.238868 0.209881 0.241472 0.203239 0.231457 0.204837 0.233845 0.238868 0.27978 0.241472 0.284065 0.231457 0.268049 0.233845 0.271763 0.27978 0.336648 0.284065 0.344222 0.268049 0.316888 0.271763 0.322969 0.336648 0.420168 0.344222 0.433757 0.316888 0.384129 0.322969 0.394991 0.420168 0.553594 0.433757 0.583623 0.384129 0.478507 0.394991 0.49992 0.553594 0.784677 0.583623 0.879216 0.478507 0.599071 0.49992 0.643174 0.784677 1.09928 0.879216 1.42299 0.599071 0.691476 0.643174 0.742558 1.09928 1.09927 1.42299 1.42033 0.691476 0.692213 0.742558 0.74383 1.09927 0.787875 1.42033 0.888255 0.692213 0.601289 0.74383 0.645047 0.787875 0.557899 0.888255 0.58807 0.601289 0.483169 0.645047 0.504728 0.209881 0.241472 0.208169 0.238868 0.204837 0.233845 0.203239 0.231457 0.241472 0.284065 0.238868 0.27978 0.233845 0.271763 0.231457 0.268049 0.284065 0.344222 0.27978 0.336648 0.271763 0.322969 0.268049 0.316889 0.344222 0.433757 0.336648 0.420169 0.322969 0.394991 0.316889 0.384129 0.433757 0.583623 0.420169 0.553594 0.394991 0.49992 0.384129 0.478508 0.583623 0.879216 0.553594 0.784689 0.49992 0.643174 0.478508 0.599065 0.879216 1.42299 0.784689 1.09919 0.643174 0.742558 0.599065 0.691471 1.42299 1.42033 1.09919 1.09917 0.742558 0.74383 0.691471 0.692207 1.42033 0.888255 1.09917 0.787877 0.74383 0.645047 0.692207 0.601283 0.888255 0.58807 0.787877 0.557903 0.645047 0.504728 0.601283 0.483169 0.208169 0.238868 0.203254 0.231472 0.203239 0.231457 0.198635 0.224685 0.238868 0.27978 0.231472 0.268071 0.231457 0.268049 0.224685 0.257705 0.27978 0.336648 0.268071 0.316917 0.268049 0.316889 0.257705 0.300279 0.336648 0.420169 0.316917 0.384154 0.316889 0.384129 0.300279 0.355721 0.420169 0.553594 0.384154 0.478508 0.384129 0.478508 0.355721 0.426169 0.553594 0.784689 0.478508 0.598988 0.478508 0.599065 0.426169 0.50402 0.784689 1.09919 0.598988 0.691263 0.599065 0.691471 0.50402 0.562026 1.09919 1.09917 0.691263 0.692004 0.691471 0.692207 0.562026 0.562498 1.09917 0.787877 0.692004 0.601209 0.692207 0.601283 0.562498 0.505585 0.787877 0.557903 0.601209 0.483253 0.601283 0.483169 0.505585 0.429517 0.203254 0.231472 0.195701 0.220448 0.198635 0.224685 0.191543 0.214535 0.231472 0.268071 0.220448 0.251367 0.224685 0.257705 0.214535 0.242713 0.268071 0.316917 0.251367 0.290337 0.257705 0.300279 0.242713 0.277254 0.316917 0.384154 0.290337 0.339235 0.300279 0.355721 0.277254 0.318842 0.384154 0.478508 0.339235 0.397406 0.355721 0.426169 0.318842 0.365721 0.478508 0.598988 0.397406 0.454688 0.426169 0.50402 0.365721 0.410297 0.598988 0.691263 0.454688 0.491685 0.50402 0.562026 0.410297 0.438505 0.691263 0.692004 0.491685 0.49204 0.562026 0.562498 0.438505 0.438775 0.692004 0.601209 0.49204 0.455776 0.562498 0.505585 0.438775 0.411146 0.601209 0.483253 0.455776 0.399144 0.505585 0.429517 0.411146 0.367151 0.195701 0.220448 0.186281 0.207212 0.191543 0.214535 0.182665 0.202256 0.220448 0.251367 0.207212 0.23231 0.214535 0.242713 0.202256 0.22539 0.251367 0.290337 0.23231 0.261927 0.242713 0.277254 0.22539 0.25214 0.290337 0.339235 0.261927 0.295679 0.277254 0.318842 0.25214 0.28187 0.339235 0.397406 0.295679 0.330858 0.318842 0.365721 0.28187 0.312121 0.397406 0.454688 0.330858 0.361529 0.365721 0.410297 0.312121 0.337963 0.454688 0.491685 0.361529 0.379874 0.410297 0.438505 0.337963 0.353192 0.491685 0.49204 0.379874 0.37997 0.438505 0.438775 0.353192 0.353268 0.49204 0.455776 0.37997 0.361593 0.438775 0.411146 0.353268 0.338023 0.455776 0.399144 0.361593 0.330489 0.411146 0.367151 0.338023 0.31205 0.186281 0.207212 0.17548 0.193176 0.182665 0.202256 0.172454 0.189136 0.207212 0.23231 0.193176 0.21304 0.202256 0.22539 0.189136 0.207656 0.23231 0.261927 0.21304 0.235132 0.22539 0.25214 0.207656 0.227975 0.261927 0.295679 0.235132 0.258393 0.25214 0.28187 0.227975 0.249084 0.295679 0.330858 0.258393 0.280528 0.28187 0.312121 0.249084 0.268952 0.330858 0.361529 0.280528 0.298207 0.312121 0.337963 0.268952 0.284717 0.361529 0.379874 0.298207 0.30808 0.337963 0.353192 0.284717 0.29351 0.379874 0.37997 0.30808 0.308074 0.353192 0.353268 0.29351 0.293504 0.37997 0.361593 0.308074 0.297971 0.353268 0.338023 0.293504 0.284554 0.361593 0.330489 0.297971 0.278362 0.338023 0.31205 0.284554 0.267353 0.172454 0.189135 0.182665 0.202256 0.167713 0.182896 0.177047 0.194689 0.189135 0.207656 0.202256 0.225389 0.182896 0.19947 0.194689 0.215041 0.207656 0.227975 0.225389 0.252139 0.19947 0.217281 0.215041 0.237886 0.227975 0.249084 0.252139 0.281869 0.217281 0.235393 0.237886 0.262383 0.249084 0.268952 0.281869 0.312121 0.235393 0.252133 0.262383 0.286401 0.268952 0.284716 0.312121 0.337962 0.252133 0.265244 0.286401 0.306312 0.284716 0.29351 0.337962 0.353192 0.265244 0.272504 0.306312 0.317799 0.29351 0.293504 0.353192 0.353268 0.272504 0.272491 0.317799 0.317837 0.293504 0.284554 0.353268 0.338023 0.272491 0.265122 0.317837 0.306326 0.284554 0.267353 0.338023 0.31205 0.265122 0.251067 0.306326 0.286418 0.182665 0.202256 0.191543 0.214535 0.177047 0.194689 0.185122 0.205597 0.202256 0.225389 0.214535 0.242713 0.194689 0.215041 0.205597 0.229975 0.225389 0.252139 0.242713 0.277254 0.215041 0.237886 0.229975 0.258671 0.252139 0.281869 0.277254 0.318842 0.237886 0.262383 0.258671 0.291335 0.281869 0.312121 0.318842 0.365721 0.262383 0.286401 0.291335 0.325677 0.312121 0.337962 0.365721 0.410297 0.286401 0.306312 0.325677 0.356199 0.337962 0.353192 0.410297 0.438505 0.306312 0.317799 0.356199 0.374875 0.353192 0.353268 0.438505 0.438775 0.317799 0.317837 0.374875 0.37503 0.353268 0.338023 0.438775 0.411147 0.317837 0.306326 0.37503 0.356673 0.338023 0.31205 0.411147 0.367151 0.306326 0.286418 0.356673 0.326468 0.191543 0.214535 0.198635 0.224685 0.185122 0.205597 0.191536 0.214518 0.214535 0.242713 0.224685 0.257705 0.205597 0.229975 0.214518 0.242673 0.242713 0.277254 0.257705 0.300279 0.229975 0.258671 0.242673 0.27719 0.277254 0.318842 0.300279 0.35572 0.258671 0.291335 0.27719 0.318777 0.318842 0.365721 0.35572 0.426169 0.291335 0.325677 0.318777 0.365681 0.365721 0.410297 0.426169 0.504022 0.325677 0.356199 0.365681 0.410301 0.410297 0.438505 0.504022 0.562034 0.356199 0.374875 0.410301 0.438552 0.438505 0.438775 0.562034 0.562507 0.374875 0.37503 0.438552 0.438847 0.438775 0.411147 0.562507 0.505588 0.37503 0.356673 0.438847 0.411206 0.411147 0.367151 0.505588 0.429518 0.356673 0.326468 0.411206 0.367176 0.198635 0.224685 0.203239 0.231457 0.191536 0.214518 0.195682 0.220419 0.224685 0.257705 0.231457 0.268049 0.214518 0.242673 0.220419 0.251305 0.257705 0.300279 0.268049 0.316888 0.242673 0.27719 0.251305 0.290246 0.300279 0.35572 0.316888 0.384129 0.27719 0.318777 0.290246 0.33915 0.35572 0.426169 0.384129 0.478507 0.318777 0.365681 0.33915 0.397374 0.426169 0.504022 0.478507 0.599071 0.365681 0.410301 0.397374 0.454741 0.504022 0.562034 0.599071 0.691476 0.410301 0.438552 0.454741 0.491807 0.562034 0.562507 0.691476 0.692213 0.438552 0.438847 0.491807 0.492199 0.562507 0.505588 0.692213 0.601289 0.438847 0.411206 0.492199 0.455904 0.505588 0.429518 0.601289 0.483169 0.411206 0.367176 0.455904 0.399162 0.203239 0.231457 0.204837 0.233845 0.195682 0.220419 0.197119 0.222489 0.231457 0.268049 0.233845 0.271763 0.220419 0.251305 0.222489 0.254376 0.268049 0.316888 0.271763 0.322969 0.251305 0.290246 0.254376 0.294989 0.316888 0.384129 0.322969 0.394991 0.290246 0.33915 0.294989 0.346754 0.384129 0.478507 0.394991 0.49992 0.33915 0.397374 0.346754 0.409732 0.478507 0.599071 0.49992 0.643174 0.397374 0.454741 0.409732 0.471924 0.599071 0.691476 0.643174 0.742558 0.454741 0.491807 0.471924 0.513619 0.691476 0.692213 0.742558 0.74383 0.491807 0.492199 0.513619 0.513978 0.692213 0.601289 0.74383 0.645047 0.492199 0.455904 0.513978 0.473236 0.601289 0.483169 0.645047 0.504728 0.455904 0.399162 0.473236 0.411564 0.204837 0.233845 0.203239 0.231457 0.197119 0.222489 0.195682 0.220419 0.233845 0.271763 0.231457 0.268049 0.222489 0.254376 0.220419 0.251305 0.271763 0.322969 0.268049 0.316889 0.254376 0.294989 0.251305 0.290246 0.322969 0.394991 0.316889 0.384129 0.294989 0.346754 0.290246 0.33915 0.394991 0.49992 0.384129 0.478508 0.346754 0.409732 0.33915 0.397373 0.49992 0.643174 0.478508 0.599065 0.409732 0.471924 0.397373 0.45474 0.643174 0.742558 0.599065 0.691471 0.471924 0.513619 0.45474 0.491805 0.742558 0.74383 0.691471 0.692207 0.513619 0.513978 0.491805 0.492197 0.74383 0.645047 0.692207 0.601283 0.513978 0.473236 0.492197 0.455903 0.645047 0.504728 0.601283 0.483169 0.473236 0.411564 0.455903 0.399161 0.203239 0.231457 0.198635 0.224685 0.195682 0.220419 0.191536 0.214519 0.231457 0.268049 0.224685 0.257705 0.220419 0.251305 0.214519 0.242673 0.268049 0.316889 0.257705 0.300279 0.251305 0.290246 0.242673 0.27719 0.316889 0.384129 0.300279 0.355721 0.290246 0.33915 0.27719 0.318777 0.384129 0.478508 0.355721 0.426169 0.33915 0.397373 0.318777 0.36568 0.478508 0.599065 0.426169 0.50402 0.397373 0.45474 0.36568 0.4103 0.599065 0.691471 0.50402 0.562026 0.45474 0.491805 0.4103 0.43855 0.691471 0.692207 0.562026 0.562498 0.491805 0.492197 0.43855 0.438845 0.692207 0.601283 0.562498 0.505585 0.492197 0.455903 0.438845 0.411205 0.601283 0.483169 0.505585 0.429517 0.455903 0.399161 0.411205 0.367175 0.198635 0.224685 0.191543 0.214535 0.191536 0.214519 0.185122 0.205597 0.224685 0.257705 0.214535 0.242713 0.214519 0.242673 0.205597 0.229975 0.257705 0.300279 0.242713 0.277254 0.242673 0.27719 0.229975 0.258671 0.300279 0.355721 0.277254 0.318842 0.27719 0.318777 0.258671 0.291334 0.355721 0.426169 0.318842 0.365721 0.318777 0.36568 0.291334 0.325677 0.426169 0.50402 0.365721 0.410297 0.36568 0.4103 0.325677 0.356198 0.50402 0.562026 0.410297 0.438505 0.4103 0.43855 0.356198 0.374873 0.562026 0.562498 0.438505 0.438775 0.43855 0.438845 0.374873 0.375029 0.562498 0.505585 0.438775 0.411146 0.438845 0.411205 0.375029 0.356672 0.505585 0.429517 0.411146 0.367151 0.411205 0.367175 0.356672 0.326468 0.191543 0.214535 0.182665 0.202256 0.185122 0.205597 0.177047 0.194689 0.214535 0.242713 0.202256 0.22539 0.205597 0.229975 0.194689 0.215041 0.242713 0.277254 0.22539 0.25214 0.229975 0.258671 0.215041 0.237886 0.277254 0.318842 0.25214 0.28187 0.258671 0.291334 0.237886 0.262383 0.318842 0.365721 0.28187 0.312121 0.291334 0.325677 0.262383 0.286401 0.365721 0.410297 0.312121 0.337963 0.325677 0.356198 0.286401 0.306312 0.410297 0.438505 0.337963 0.353192 0.356198 0.374873 0.306312 0.317799 0.438505 0.438775 0.353192 0.353268 0.374873 0.375029 0.317799 0.317837 0.438775 0.411146 0.353268 0.338023 0.375029 0.356672 0.317837 0.306326 0.411146 0.367151 0.338023 0.31205 0.356672 0.326468 0.306326 0.286417 0.182665 0.202256 0.172454 0.189136 0.177047 0.194689 0.167713 0.182896 0.202256 0.22539 0.189136 0.207656 0.194689 0.215041 0.182896 0.19947 0.22539 0.25214 0.20