<?xml version="1.0" ?> 
<!-- 
# vtk DataFile Version 3.0
#This file was generated by the deal.II library on 16:49:34 at 2019/11/27
-->
<VTKFile type="UnstructuredGrid" version="0.1" byte_order="LittleEndian">
<UnstructuredGrid>
<Piece NumberOfPoints="65232" NumberOfCells="8154" >
  <Points>
    <DataArray type="Float32" NumberOfComponents="3" format="ascii">
-50 -50 0
-40 -50 0
-50 -40 0
-40 -40 0
-50 -50 10
-40 -50 10
-50 -40 10
-40 -40 10
-40 -50 0
-30 -50 0
-40 -40 0
-30 -40 0
-40 -50 10
-30 -50 10
-40 -40 10
-30 -40 10
-30 -50 0
-20 -50 0
-30 -40 0
-20 -40 0
-30 -50 10
-20 -50 10
-30 -40 10
-20 -40 10
-20 -50 0
-10 -50 0
-20 -40 0
-10 -40 0
-20 -50 10
-10 -50 10
-20 -40 10
-10 -40 10
-10 -50 0
0 -50 0
-10 -40 0
0 -40 0
-10 -50 10
0 -50 10
-10 -40 10
0 -40 10
0 -50 0
10 -50 0
0 -40 0
10 -40 0
0 -50 10
10 -50 10
0 -40 10
10 -40 10
10 -50 0
20 -50 0
10 -40 0
20 -40 0
10 -50 10
20 -50 10
10 -40 10
20 -40 10
20 -50 0
30 -50 0
20 -40 0
30 -40 0
20 -50 10
30 -50 10
20 -40 10
30 -40 10
30 -50 0
40 -50 0
30 -40 0
40 -40 0
30 -50 10
40 -50 10
30 -40 10
40 -40 10
40 -50 0
50 -50 0
40 -40 0
50 -40 0
40 -50 10
50 -50 10
40 -40 10
50 -40 10
-50 -40 0
-40 -40 0
-50 -30 0
-40 -30 0
-50 -40 10
-40 -40 10
-50 -30 10
-40 -30 10
-40 -40 0
-30 -40 0
-40 -30 0
-30 -30 0
-40 -40 10
-30 -40 10
-40 -30 10
-30 -30 10
-30 -40 0
-20 -40 0
-30 -30 0
-20 -30 0
-30 -40 10
-20 -40 10
-30 -30 10
-20 -30 10
-20 -40 0
-10 -40 0
-20 -30 0
-10 -30 0
-20 -40 10
-10 -40 10
-20 -30 10
-10 -30 10
-10 -40 0
0 -40 0
-10 -30 0
0 -30 0
-10 -40 10
0 -40 10
-10 -30 10
0 -30 10
0 -40 0
10 -40 0
0 -30 0
10 -30 0
0 -40 10
10 -40 10
0 -30 10
10 -30 10
20 -40 0
30 -40 0
20 -30 0
30 -30 0
20 -40 10
30 -40 10
20 -30 10
30 -30 10
30 -40 0
40 -40 0
30 -30 0
40 -30 0
30 -40 10
40 -40 10
30 -30 10
40 -30 10
40 -40 0
50 -40 0
40 -30 0
50 -30 0
40 -40 10
50 -40 10
40 -30 10
50 -30 10
-50 -30 0
-40 -30 0
-50 -20 0
-40 -20 0
-50 -30 10
-40 -30 10
-50 -20 10
-40 -20 10
-40 -30 0
-30 -30 0
-40 -20 0
-30 -20 0
-40 -30 10
-30 -30 10
-40 -20 10
-30 -20 10
-30 -30 0
-20 -30 0
-30 -20 0
-20 -20 0
-30 -30 10
-20 -30 10
-30 -20 10
-20 -20 10
-20 -30 0
-10 -30 0
-20 -20 0
-10 -20 0
-20 -30 10
-10 -30 10
-20 -20 10
-10 -20 10
-10 -30 0
0 -30 0
-10 -20 0
0 -20 0
-10 -30 10
0 -30 10
-10 -20 10
0 -20 10
-50 -20 0
-40 -20 0
-50 -10 0
-40 -10 0
-50 -20 10
-40 -20 10
-50 -10 10
-40 -10 10
-40 -20 0
-30 -20 0
-40 -10 0
-30 -10 0
-40 -20 10
-30 -20 10
-40 -10 10
-30 -10 10
-30 -20 0
-20 -20 0
-30 -10 0
-20 -10 0
-30 -20 10
-20 -20 10
-30 -10 10
-20 -10 10
-20 -20 0
-10 -20 0
-20 -10 0
-10 -10 0
-20 -20 10
-10 -20 10
-20 -10 10
-10 -10 10
-50 -10 0
-40 -10 0
-50 0 0
-40 0 0
-50 -10 10
-40 -10 10
-50 0 10
-40 0 10
-40 -10 0
-30 -10 0
-40 0 0
-30 0 0
-40 -10 10
-30 -10 10
-40 0 10
-30 0 10
-30 -10 0
-20 -10 0
-30 0 0
-20 0 0
-30 -10 10
-20 -10 10
-30 0 10
-20 0 10
-50 0 0
-40 0 0
-50 10 0
-40 10 0
-50 0 10
-40 0 10
-50 10 10
-40 10 10
-40 0 0
-30 0 0
-40 10 0
-30 10 0
-40 0 10
-30 0 10
-40 10 10
-30 10 10
-30 0 0
-20 0 0
-30 10 0
-20 10 0
-30 0 10
-20 0 10
-30 10 10
-20 10 10
-50 10 0
-40 10 0
-50 20 0
-40 20 0
-50 10 10
-40 10 10
-50 20 10
-40 20 10
-40 10 0
-30 10 0
-40 20 0
-30 20 0
-40 10 10
-30 10 10
-40 20 10
-30 20 10
-30 10 0
-20 10 0
-30 20 0
-20 20 0
-30 10 10
-20 10 10
-30 20 10
-20 20 10
-20 10 0
-10 10 0
-20 20 0
-10 20 0
-20 10 10
-10 10 10
-20 20 10
-10 20 10
-50 20 0
-40 20 0
-50 30 0
-40 30 0
-50 20 10
-40 20 10
-50 30 10
-40 30 10
-40 20 0
-30 20 0
-40 30 0
-30 30 0
-40 20 10
-30 20 10
-40 30 10
-30 30 10
-30 20 0
-20 20 0
-30 30 0
-20 30 0
-30 20 10
-20 20 10
-30 30 10
-20 30 10
-20 20 0
-10 20 0
-20 30 0
-10 30 0
-20 20 10
-10 20 10
-20 30 10
-10 30 10
-10 20 0
0 20 0
-10 30 0
0 30 0
-10 20 10
0 20 10
-10 30 10
0 30 10
-50 30 0
-40 30 0
-50 40 0
-40 40 0
-50 30 10
-40 30 10
-50 40 10
-40 40 10
-40 30 0
-30 30 0
-40 40 0
-30 40 0
-40 30 10
-30 30 10
-40 40 10
-30 40 10
-30 30 0
-20 30 0
-30 40 0
-20 40 0
-30 30 10
-20 30 10
-30 40 10
-20 40 10
-20 30 0
-10 30 0
-20 40 0
-10 40 0
-20 30 10
-10 30 10
-20 40 10
-10 40 10
-10 30 0
0 30 0
-10 40 0
0 40 0
-10 30 10
0 30 10
-10 40 10
0 40 10
0 30 0
10 30 0
0 40 0
10 40 0
0 30 10
10 30 10
0 40 10
10 40 10
10 30 0
20 30 0
10 40 0
20 40 0
10 30 10
20 30 10
10 40 10
20 40 10
20 30 0
30 30 0
20 40 0
30 40 0
20 30 10
30 30 10
20 40 10
30 40 10
30 30 0
40 30 0
30 40 0
40 40 0
30 30 10
40 30 10
30 40 10
40 40 10
40 30 0
50 30 0
40 40 0
50 40 0
40 30 10
50 30 10
40 40 10
50 40 10
-50 40 0
-40 40 0
-50 50 0
-40 50 0
-50 40 10
-40 40 10
-50 50 10
-40 50 10
-40 40 0
-30 40 0
-40 50 0
-30 50 0
-40 40 10
-30 40 10
-40 50 10
-30 50 10
-30 40 0
-20 40 0
-30 50 0
-20 50 0
-30 40 10
-20 40 10
-30 50 10
-20 50 10
-20 40 0
-10 40 0
-20 50 0
-10 50 0
-20 40 10
-10 40 10
-20 50 10
-10 50 10
-10 40 0
0 40 0
-10 50 0
0 50 0
-10 40 10
0 40 10
-10 50 10
0 50 10
0 40 0
10 40 0
0 50 0
10 50 0
0 40 10
10 40 10
0 50 10
10 50 10
10 40 0
20 40 0
10 50 0
20 50 0
10 40 10
20 40 10
10 50 10
20 50 10
20 40 0
30 40 0
20 50 0
30 50 0
20 40 10
30 40 10
20 50 10
30 50 10
30 40 0
40 40 0
30 50 0
40 50 0
30 40 10
40 40 10
30 50 10
40 50 10
40 40 0
50 40 0
40 50 0
50 50 0
40 40 10
50 40 10
40 50 10
50 50 10
-50 -50 10
-40 -50 10
-50 -40 10
-40 -40 10
-50 -50 20
-40 -50 20
-50 -40 20
-40 -40 20
-40 -50 10
-30 -50 10
-40 -40 10
-30 -40 10
-40 -50 20
-30 -50 20
-40 -40 20
-30 -40 20
-30 -50 10
-20 -50 10
-30 -40 10
-20 -40 10
-30 -50 20
-20 -50 20
-30 -40 20
-20 -40 20
-20 -50 10
-10 -50 10
-20 -40 10
-10 -40 10
-20 -50 20
-10 -50 20
-20 -40 20
-10 -40 20
-10 -50 10
0 -50 10
-10 -40 10
0 -40 10
-10 -50 20
0 -50 20
-10 -40 20
0 -40 20
0 -50 10
10 -50 10
0 -40 10
10 -40 10
0 -50 20
10 -50 20
0 -40 20
10 -40 20
10 -50 10
20 -50 10
10 -40 10
20 -40 10
10 -50 20
20 -50 20
10 -40 20
20 -40 20
20 -50 10
30 -50 10
20 -40 10
30 -40 10
20 -50 20
30 -50 20
20 -40 20
30 -40 20
30 -50 10
40 -50 10
30 -40 10
40 -40 10
30 -50 20
40 -50 20
30 -40 20
40 -40 20
40 -50 10
50 -50 10
40 -40 10
50 -40 10
40 -50 20
50 -50 20
40 -40 20
50 -40 20
-50 -40 10
-40 -40 10
-50 -30 10
-40 -30 10
-50 -40 20
-40 -40 20
-50 -30 20
-40 -30 20
-40 -40 10
-30 -40 10
-40 -30 10
-30 -30 10
-40 -40 20
-30 -40 20
-40 -30 20
-30 -30 20
-30 -40 10
-20 -40 10
-30 -30 10
-20 -30 10
-30 -40 20
-20 -40 20
-30 -30 20
-20 -30 20
-20 -40 10
-10 -40 10
-20 -30 10
-10 -30 10
-20 -40 20
-10 -40 20
-20 -30 20
-10 -30 20
-10 -40 10
0 -40 10
-10 -30 10
0 -30 10
-10 -40 20
0 -40 20
-10 -30 20
0 -30 20
0 -40 10
10 -40 10
0 -30 10
10 -30 10
0 -40 20
10 -40 20
0 -30 20
10 -30 20
10 -40 10
20 -40 10
10 -30 10
20 -30 10
10 -40 20
20 -40 20
10 -30 20
20 -30 20
40 -40 10
50 -40 10
40 -30 10
50 -30 10
40 -40 20
50 -40 20
40 -30 20
50 -30 20
-50 -30 10
-40 -30 10
-50 -20 10
-40 -20 10
-50 -30 20
-40 -30 20
-50 -20 20
-40 -20 20
-40 -30 10
-30 -30 10
-40 -20 10
-30 -20 10
-40 -30 20
-30 -30 20
-40 -20 20
-30 -20 20
-30 -30 10
-20 -30 10
-30 -20 10
-20 -20 10
-30 -30 20
-20 -30 20
-30 -20 20
-20 -20 20
-20 -30 10
-10 -30 10
-20 -20 10
-10 -20 10
-20 -30 20
-10 -30 20
-20 -20 20
-10 -20 20
-10 -30 10
0 -30 10
-10 -20 10
0 -20 10
-10 -30 20
0 -30 20
-10 -20 20
0 -20 20
-50 -20 10
-40 -20 10
-50 -10 10
-40 -10 10
-50 -20 20
-40 -20 20
-50 -10 20
-40 -10 20
-40 -20 10
-30 -20 10
-40 -10 10
-30 -10 10
-40 -20 20
-30 -20 20
-40 -10 20
-30 -10 20
-30 -20 10
-20 -20 10
-30 -10 10
-20 -10 10
-30 -20 20
-20 -20 20
-30 -10 20
-20 -10 20
-20 -20 10
-10 -20 10
-20 -10 10
-10 -10 10
-20 -20 20
-10 -20 20
-20 -10 20
-10 -10 20
-10 -20 10
0 -20 10
-10 -10 10
0 -10 10
-10 -20 20
0 -20 20
-10 -10 20
0 -10 20
-50 -10 10
-40 -10 10
-50 0 10
-40 0 10
-50 -10 20
-40 -10 20
-50 0 20
-40 0 20
-40 -10 10
-30 -10 10
-40 0 10
-30 0 10
-40 -10 20
-30 -10 20
-40 0 20
-30 0 20
-30 -10 10
-20 -10 10
-30 0 10
-20 0 10
-30 -10 20
-20 -10 20
-30 0 20
-20 0 20
-20 -10 10
-10 -10 10
-20 0 10
-10 0 10
-20 -10 20
-10 -10 20
-20 0 20
-10 0 20
-50 0 10
-40 0 10
-50 10 10
-40 10 10
-50 0 20
-40 0 20
-50 10 20
-40 10 20
-40 0 10
-30 0 10
-40 10 10
-30 10 10
-40 0 20
-30 0 20
-40 10 20
-30 10 20
-30 0 10
-20 0 10
-30 10 10
-20 10 10
-30 0 20
-20 0 20
-30 10 20
-20 10 20
-20 0 10
-10 0 10
-20 10 10
-10 10 10
-20 0 20
-10 0 20
-20 10 20
-10 10 20
-50 10 10
-40 10 10
-50 20 10
-40 20 10
-50 10 20
-40 10 20
-50 20 20
-40 20 20
-40 10 10
-30 10 10
-40 20 10
-30 20 10
-40 10 20
-30 10 20
-40 20 20
-30 20 20
-30 10 10
-20 10 10
-30 20 10
-20 20 10
-30 10 20
-20 10 20
-30 20 20
-20 20 20
-20 10 10
-10 10 10
-20 20 10
-10 20 10
-20 10 20
-10 10 20
-20 20 20
-10 20 20
-10 10 10
0 10 10
-10 20 10
0 20 10
-10 10 20
0 10 20
-10 20 20
0 20 20
-50 20 10
-40 20 10
-50 30 10
-40 30 10
-50 20 20
-40 20 20
-50 30 20
-40 30 20
-40 20 10
-30 20 10
-40 30 10
-30 30 10
-40 20 20
-30 20 20
-40 30 20
-30 30 20
-30 20 10
-20 20 10
-30 30 10
-20 30 10
-30 20 20
-20 20 20
-30 30 20
-20 30 20
-20 20 10
-10 20 10
-20 30 10
-10 30 10
-20 20 20
-10 20 20
-20 30 20
-10 30 20
-10 20 10
0 20 10
-10 30 10
0 30 10
-10 20 20
0 20 20
-10 30 20
0 30 20
-50 30 10
-40 30 10
-50 40 10
-40 40 10
-50 30 20
-40 30 20
-50 40 20
-40 40 20
-40 30 10
-30 30 10
-40 40 10
-30 40 10
-40 30 20
-30 30 20
-40 40 20
-30 40 20
-30 30 10
-20 30 10
-30 40 10
-20 40 10
-30 30 20
-20 30 20
-30 40 20
-20 40 20
-20 30 10
-10 30 10
-20 40 10
-10 40 10
-20 30 20
-10 30 20
-20 40 20
-10 40 20
-10 30 10
0 30 10
-10 40 10
0 40 10
-10 30 20
0 30 20
-10 40 20
0 40 20
0 30 10
10 30 10
0 40 10
10 40 10
0 30 20
10 30 20
0 40 20
10 40 20
10 30 10
20 30 10
10 40 10
20 40 10
10 30 20
20 30 20
10 40 20
20 40 20
40 30 10
50 30 10
40 40 10
50 40 10
40 30 20
50 30 20
40 40 20
50 40 20
-50 40 10
-40 40 10
-50 50 10
-40 50 10
-50 40 20
-40 40 20
-50 50 20
-40 50 20
-40 40 10
-30 40 10
-40 50 10
-30 50 10
-40 40 20
-30 40 20
-40 50 20
-30 50 20
-30 40 10
-20 40 10
-30 50 10
-20 50 10
-30 40 20
-20 40 20
-30 50 20
-20 50 20
-20 40 10
-10 40 10
-20 50 10
-10 50 10
-20 40 20
-10 40 20
-20 50 20
-10 50 20
-10 40 10
0 40 10
-10 50 10
0 50 10
-10 40 20
0 40 20
-10 50 20
0 50 20
0 40 10
10 40 10
0 50 10
10 50 10
0 40 20
10 40 20
0 50 20
10 50 20
10 40 10
20 40 10
[...]
  <PointData Scalars="scalars">
    <DataArray type="Float32" Name="u" format="ascii">
0.168315 0.185025 0.177861 0.197364 0.167398 0.183803 0.176777 0.195883 0.185025 0.203916 0.197364 0.220782 0.183803 0.202285 0.195883 0.218715 0.203916 0.225305 0.220782 0.248683 0.202285 0.223117 0.218715 0.245743 0.225305 0.248719 0.248683 0.281502 0.223117 0.245791 0.245743 0.277272 0.248719 0.272762 0.281502 0.318155 0.245791 0.26889 0.277272 0.312055 0.272762 0.295649 0.318155 0.355795 0.26889 0.290612 0.312055 0.3472 0.295649 0.312398 0.355795 0.385829 0.290612 0.306496 0.3472 0.375005 0.312398 0.318599 0.385829 0.39768 0.306496 0.312338 0.375005 0.385824 0.318599 0.312015 0.39768 0.385869 0.312338 0.306077 0.385824 0.37496 0.312015 0.293113 0.385869 0.355257 0.306077 0.288351 0.37496 0.346828 0.177861 0.197364 0.186171 0.2089 0.176777 0.195883 0.184927 0.207146 0.197364 0.220782 0.2089 0.237248 0.195883 0.218715 0.207146 0.234675 0.220782 0.248683 0.237248 0.272961 0.218715 0.245743 0.234675 0.269087 0.248683 0.281502 0.272961 0.318005 0.245743 0.277272 0.269087 0.311913 0.281502 0.318155 0.318005 0.375465 0.277272 0.312055 0.311913 0.365438 0.318155 0.355795 0.375465 0.443297 0.312055 0.3472 0.365438 0.42762 0.385829 0.39768 0.503013 0.530717 0.375005 0.385824 0.480862 0.50305 0.39768 0.385869 0.530717 0.50665 0.385824 0.37496 0.50305 0.48235 0.385869 0.355257 0.50665 0.445891 0.37496 0.346828 0.48235 0.429409 0.186171 0.2089 0.192836 0.218518 0.184927 0.207146 0.191449 0.216503 0.2089 0.237248 0.218518 0.251538 0.207146 0.234675 0.216503 0.248475 0.237248 0.272961 0.251538 0.295661 0.234675 0.269087 0.248475 0.290768 0.272961 0.318005 0.295661 0.355682 0.269087 0.311913 0.290768 0.347115 0.318005 0.375465 0.355682 0.443223 0.311913 0.365438 0.347115 0.427588 0.192836 0.218518 0.19719 0.224978 0.191449 0.216503 0.195715 0.222725 0.218518 0.251538 0.224978 0.262035 0.216503 0.248475 0.222725 0.25874 0.251538 0.295661 0.262035 0.311868 0.248475 0.290768 0.25874 0.305728 0.295661 0.355682 0.311868 0.385185 0.290768 0.347115 0.305728 0.374911 0.19719 0.224978 0.198706 0.227295 0.195715 0.222725 0.197189 0.224979 0.224978 0.262035 0.227295 0.26554 0.222725 0.25874 0.224979 0.262037 0.262035 0.311868 0.26554 0.320464 0.25874 0.305728 0.262037 0.311869 0.198706 0.227295 0.19719 0.224978 0.197189 0.224979 0.195715 0.222725 0.227295 0.26554 0.224978 0.262035 0.224979 0.262037 0.222725 0.25874 0.26554 0.320464 0.262035 0.311866 0.262037 0.311869 0.25874 0.305727 0.19719 0.224978 0.192836 0.218518 0.195715 0.222725 0.19145 0.216503 0.224978 0.262035 0.218518 0.251538 0.222725 0.25874 0.216503 0.248475 0.262035 0.311866 0.251538 0.29566 0.25874 0.305727 0.248475 0.290767 0.311866 0.385178 0.29566 0.355679 0.305727 0.374906 0.290767 0.347111 0.192836 0.218518 0.186171 0.208901 0.19145 0.216503 0.184927 0.207146 0.218518 0.251538 0.208901 0.237248 0.216503 0.248475 0.207146 0.234675 0.251538 0.29566 0.237248 0.27296 0.248475 0.290767 0.234675 0.269087 0.29566 0.355679 0.27296 0.318007 0.290767 0.347111 0.269087 0.311911 0.355679 0.443244 0.318007 0.375401 0.347111 0.427585 0.311911 0.36544 0.186171 0.208901 0.177861 0.197364 0.184927 0.207146 0.176777 0.195883 0.208901 0.237248 0.197364 0.220783 0.207146 0.234675 0.195883 0.218716 0.237248 0.27296 0.220783 0.248684 0.234675 0.269087 0.218716 0.245744 0.27296 0.318007 0.248684 0.281499 0.269087 0.311911 0.245744 0.277273 0.318007 0.375401 0.281499 0.318175 0.311911 0.36544 0.277273 0.312064 0.375401 0.444081 0.318175 0.355773 0.36544 0.427848 0.312064 0.347175 0.444081 0.505796 0.355773 0.385927 0.427848 0.481829 0.347175 0.375036 0.505796 0.530966 0.385927 0.397739 0.481829 0.503147 0.375036 0.385864 0.530966 0.506742 0.397739 0.385917 0.503147 0.482422 0.385864 0.375001 0.506742 0.445949 0.385917 0.3553 0.482422 0.429464 0.375001 0.346868 0.177861 0.197364 0.168315 0.185025 0.176777 0.195883 0.167399 0.183804 0.197364 0.220783 0.185025 0.203916 0.195883 0.218716 0.183804 0.202286 0.220783 0.248684 0.203916 0.225305 0.218716 0.245744 0.202286 0.223118 0.248684 0.281499 0.225305 0.248723 0.245744 0.277273 0.223118 0.245794 0.281499 0.318175 0.248723 0.272754 0.277273 0.312064 0.245794 0.268889 0.318175 0.355773 0.272754 0.295635 0.312064 0.347175 0.268889 0.290602 0.355773 0.385927 0.295635 0.312404 0.347175 0.375036 0.290602 0.306499 0.385927 0.397739 0.312404 0.318621 0.375036 0.385864 0.306499 0.312359 0.397739 0.385917 0.318621 0.312047 0.385864 0.375001 0.312359 0.306107 0.385917 0.3553 0.312047 0.293145 0.375001 0.346868 0.306107 0.288381 0.167398 0.183803 0.176777 0.195883 0.164733 0.180275 0.173636 0.191628 0.183803 0.202285 0.195883 0.218715 0.180275 0.197614 0.191628 0.212835 0.202285 0.223117 0.218715 0.245743 0.197614 0.216898 0.212835 0.237518 0.223117 0.245791 0.245743 0.277272 0.216898 0.237577 0.237518 0.265587 0.245791 0.26889 0.277272 0.312055 0.237577 0.258231 0.265587 0.295718 0.26889 0.290612 0.312055 0.3472 0.258231 0.276448 0.295718 0.323677 0.290612 0.306496 0.3472 0.375005 0.276448 0.290587 0.323677 0.34719 0.306496 0.312338 0.375005 0.385824 0.290587 0.295518 0.34719 0.355828 0.312338 0.306077 0.385824 0.37496 0.295518 0.289241 0.355828 0.346864 0.306077 0.288351 0.37496 0.346828 0.289241 0.275445 0.346864 0.32507 0.176777 0.195883 0.184927 0.207146 0.173636 0.191628 0.181337 0.202132 0.195883 0.218715 0.207146 0.234675 0.191628 0.212835 0.202132 0.227443 0.218715 0.245743 0.234675 0.269087 0.212835 0.237518 0.227443 0.258255 0.245743 0.277272 0.269087 0.311913 0.237518 0.265587 0.258255 0.295669 0.277272 0.312055 0.311913 0.365438 0.265587 0.295718 0.295669 0.339658 0.312055 0.3472 0.365438 0.42762 0.295718 0.323677 0.339658 0.38637 0.3472 0.375005 0.42762 0.480862 0.323677 0.34719 0.38637 0.4277 0.37496 0.346828 0.48235 0.429409 0.346864 0.32507 0.427405 0.388454 0.184927 0.207146 0.191449 0.216503 0.181337 0.202132 0.187474 0.210756 0.207146 0.234675 0.216503 0.248475 0.202132 0.227443 0.210756 0.23994 0.234675 0.269087 0.248475 0.290768 0.227443 0.258255 0.23994 0.276982 0.269087 0.311913 0.290768 0.347115 0.258255 0.295669 0.276982 0.323451 0.311913 0.365438 0.347115 0.427588 0.295669 0.339658 0.323451 0.386319 0.191449 0.216503 0.195715 0.222725 0.187474 0.210756 0.191453 0.216508 0.216503 0.248475 0.222725 0.25874 0.210756 0.23994 0.216508 0.248479 0.248475 0.290768 0.25874 0.305728 0.23994 0.276982 0.248479 0.290759 0.290768 0.347115 0.305728 0.374911 0.276982 0.323451 0.290759 0.347099 0.347115 0.427588 0.374911 0.48052 0.323451 0.386319 0.347099 0.427637 0.195715 0.222725 0.197189 0.224979 0.191453 0.216508 0.192839 0.218526 0.222725 0.25874 0.224979 0.262037 0.216508 0.248479 0.218526 0.251539 0.25874 0.305728 0.262037 0.311869 0.248479 0.290759 0.251539 0.295683 0.305728 0.374911 0.311869 0.385191 0.290759 0.347099 0.295683 0.355733 0.197189 0.224979 0.195715 0.222725 0.192839 0.218526 0.191453 0.216508 0.224979 0.262037 0.222725 0.25874 0.218526 0.251539 0.216508 0.248479 0.262037 0.311869 0.25874 0.305727 0.251539 0.295683 0.248479 0.290759 0.311869 0.385191 0.305727 0.374906 0.295683 0.355733 0.290759 0.347098 0.195715 0.222725 0.19145 0.216503 0.191453 0.216508 0.187474 0.210756 0.222725 0.25874 0.216503 0.248475 0.216508 0.248479 0.210756 0.23994 0.25874 0.305727 0.248475 0.290767 0.248479 0.290759 0.23994 0.276982 0.305727 0.374906 0.290767 0.347111 0.290759 0.347098 0.276982 0.323451 0.374906 0.480484 0.347111 0.427585 0.347098 0.427638 0.323451 0.386324 0.19145 0.216503 0.184927 0.207146 0.187474 0.210756 0.181337 0.202133 0.216503 0.248475 0.207146 0.234675 0.210756 0.23994 0.202133 0.227444 0.248475 0.290767 0.234675 0.269087 0.23994 0.276982 0.227444 0.258256 0.290767 0.347111 0.269087 0.311911 0.276982 0.323451 0.258256 0.295671 0.347111 0.427585 0.311911 0.36544 0.323451 0.386324 0.295671 0.339674 0.184927 0.207146 0.176777 0.195883 0.181337 0.202133 0.173637 0.191629 0.207146 0.234675 0.195883 0.218716 0.202133 0.227444 0.191629 0.212836 0.234675 0.269087 0.218716 0.245744 0.227444 0.258256 0.212836 0.23752 0.269087 0.311911 0.245744 0.277273 0.258256 0.295671 0.23752 0.265591 0.311911 0.36544 0.277273 0.312064 0.295671 0.339674 0.265591 0.295726 0.36544 0.427848 0.312064 0.347175 0.339674 0.386381 0.295726 0.323694 0.427848 0.481829 0.347175 0.375036 0.386381 0.427614 0.323694 0.34721 0.482422 0.429464 0.375001 0.346868 0.427435 0.388493 0.346896 0.325101 0.176777 0.195883 0.167399 0.183804 0.173637 0.191629 0.164734 0.180276 0.195883 0.218716 0.183804 0.202286 0.191629 0.212836 0.180276 0.197615 0.218716 0.245744 0.202286 0.223118 0.212836 0.23752 0.197615 0.216899 0.245744 0.277273 0.223118 0.245794 0.23752 0.265591 0.216899 0.23758 0.277273 0.312064 0.245794 0.268889 0.265591 0.295726 0.23758 0.258236 0.312064 0.347175 0.268889 0.290602 0.295726 0.323694 0.258236 0.276452 0.347175 0.375036 0.290602 0.306499 0.323694 0.34721 0.276452 0.290599 0.375036 0.385864 0.306499 0.312359 0.34721 0.355859 0.290599 0.295539 0.385864 0.375001 0.312359 0.306107 0.355859 0.346896 0.295539 0.289266 0.375001 0.346868 0.306107 0.288381 0.346896 0.325101 0.289266 0.275471 0.164733 0.180275 0.173636 0.191628 0.160552 0.17481 0.168744 0.185101 0.180275 0.197614 0.191628 0.212835 0.17481 0.190477 0.185101 0.203995 0.197614 0.216898 0.212835 0.237518 0.190477 0.207568 0.203995 0.225415 0.216898 0.237577 0.237518 0.265587 0.207568 0.225486 0.225415 0.248977 0.237577 0.258231 0.265587 0.295718 0.225486 0.242966 0.248977 0.273295 0.258231 0.276448 0.295718 0.323677 0.242966 0.258174 0.273295 0.295683 0.276448 0.290587 0.323677 0.34719 0.258174 0.268907 0.295683 0.311805 0.290587 0.295518 0.34719 0.355828 0.268907 0.272593 0.311805 0.31878 0.295518 0.289241 0.355828 0.346864 0.272593 0.268868 0.31878 0.311774 0.289241 0.275445 0.346864 0.32507 0.268868 0.257286 0.311774 0.295499 0.173636 0.191628 0.181337 0.202132 0.168744 0.185101 0.175786 0.194515 0.191628 0.212835 0.202132 0.227443 0.185101 0.203995 0.194515 0.216734 0.212835 0.237518 0.227443 0.258255 0.203995 0.225415 0.216734 0.242935 0.237518 0.265587 0.258255 0.295669 0.225415 0.248977 0.242935 0.273287 0.265587 0.295718 0.295669 0.339658 0.248977 0.273295 0.273287 0.306724 0.295718 0.323677 0.339658 0.38637 0.273295 0.295683 0.306724 0.339622 0.323677 0.34719 0.38637 0.4277 0.295683 0.311805 0.339622 0.36512 0.34719 0.355828 0.4277 0.443329 0.311805 0.31878 0.36512 0.37647 0.355828 0.346864 0.443329 0.427405 0.31878 0.311774 0.37647 0.365065 0.346864 0.32507 0.427405 0.388454 0.311774 0.295499 0.365065 0.340211 0.181337 0.202132 0.187474 0.210756 0.175786 0.194515 0.181355 0.202147 0.202132 0.227443 0.210756 0.23994 0.194515 0.216734 0.202147 0.227448 0.227443 0.258255 0.23994 0.276982 0.216734 0.242935 0.227448 0.258228 0.258255 0.295669 0.276982 0.323451 0.242935 0.273287 0.258228 0.295625 0.295669 0.339658 0.323451 0.386319 0.273287 0.306724 0.295625 0.339587 0.339658 0.38637 0.386319 0.458524 0.306724 0.339622 0.339587 0.386296 0.187474 0.210756 0.191453 0.216508 0.181355 0.202147 0.18495 0.207169 0.210756 0.23994 0.216508 0.248479 0.202147 0.227448 0.207169 0.234677 0.23994 0.276982 0.248479 0.290759 0.227448 0.258228 0.234677 0.269106 0.276982 0.323451 0.290759 0.347099 0.258228 0.295625 0.269106 0.311654 0.323451 0.386319 0.347099 0.427637 0.295625 0.339587 0.311654 0.365056 0.191453 0.216508 0.192839 0.218526 0.18495 0.207169 0.186195 0.208924 0.216508 0.248479 0.218526 0.251539 0.207169 0.234677 0.208924 0.237262 0.248479 0.290759 0.251539 0.295683 0.234677 0.269106 0.237262 0.272907 0.290759 0.347099 0.295683 0.355733 0.269106 0.311654 0.272907 0.318596 0.347099 0.427637 0.355733 0.443093 0.311654 0.365056 0.318596 0.376405 0.192839 0.218526 0.191453 0.216508 0.186195 0.208924 0.18495 0.207169 0.218526 0.251539 0.216508 0.248479 0.208924 0.237262 0.207169 0.234677 0.251539 0.295683 0.248479 0.290759 0.237262 0.272907 0.234677 0.269106 0.295683 0.355733 0.290759 0.347098 0.272907 0.318596 0.269106 0.311655 0.355733 0.443093 0.347098 0.427638 0.318596 0.376405 0.311655 0.365017 0.191453 0.216508 0.187474 0.210756 0.18495 0.207169 0.181356 0.202148 0.216508 0.248479 0.210756 0.23994 0.207169 0.234677 0.202148 0.227448 0.248479 0.290759 0.23994 0.276982 0.234677 0.269106 0.227448 0.258229 0.290759 0.347098 0.276982 0.323451 0.269106 0.311655 0.258229 0.295624 0.347098 0.427638 0.323451 0.386324 0.311655 0.365017 0.295624 0.339604 0.187474 0.210756 0.181337 0.202133 0.181356 0.202148 0.175786 0.194515 0.210756 0.23994 0.202133 0.227444 0.202148 0.227448 0.194515 0.216735 0.23994 0.276982 0.227444 0.258256 0.227448 0.258229 0.216735 0.242936 0.276982 0.323451 0.258256 0.295671 0.258229 0.295624 0.242936 0.273291 0.323451 0.386324 0.295671 0.339674 0.295624 0.339604 0.273291 0.306729 0.386324 0.458561 0.339674 0.386381 0.339604 0.386284 0.306729 0.339633 0.181337 0.202133 0.173637 0.191629 0.175786 0.194515 0.168745 0.185102 0.202133 0.227444 0.191629 0.212836 0.194515 0.216735 0.185102 0.203996 0.227444 0.258256 0.212836 0.23752 0.216735 0.242936 0.203996 0.225417 0.258256 0.295671 0.23752 0.265591 0.242936 0.273291 0.225417 0.248981 0.295671 0.339674 0.265591 0.295726 0.273291 0.306729 0.248981 0.273302 0.339674 0.386381 0.295726 0.323694 0.306729 0.339633 0.273302 0.295692 0.386381 0.427614 0.323694 0.34721 0.339633 0.365136 0.295692 0.311819 0.427614 0.443376 0.34721 0.355859 0.365136 0.376549 0.311819 0.318804 0.443376 0.427435 0.355859 0.346896 0.376549 0.365106 0.318804 0.311798 0.427435 0.388493 0.346896 0.325101 0.365106 0.340217 0.311798 0.295522 0.173637 0.191629 0.164734 0.180276 0.168745 0.185102 0.160553 0.174811 0.191629 0.212836 0.180276 0.197615 0.185102 0.203996 0.174811 0.190478 0.212836 0.23752 0.197615 0.216899 0.203996 0.225417 0.190478 0.20757 0.23752 0.265591 0.216899 0.23758 0.225417 0.248981 0.20757 0.22549 0.265591 0.295726 0.23758 0.258236 0.248981 0.273302 0.22549 0.242972 0.295726 0.323694 0.258236 0.276452 0.273302 0.295692 0.242972 0.258183 0.323694 0.34721 0.276452 0.290599 0.295692 0.311819 0.258183 0.26892 0.34721 0.355859 0.290599 0.295539 0.311819 0.318804 0.26892 0.27261 0.355859 0.346896 0.295539 0.289266 0.318804 0.311798 0.27261 0.268888 0.346896 0.325101 0.289266 0.275471 0.311798 0.295522 0.268888 0.257306 0.160552 0.17481 0.168744 0.185101 0.15518 0.167911 0.162523 0.176969 0.17481 0.190477 0.185101 0.203995 0.167911 0.18164 0.176969 0.193252 0.190477 0.207568 0.203995 0.225415 0.18164 0.196273 0.193252 0.211157 0.207568 0.225486 0.225415 0.248977 0.196273 0.211219 0.211157 0.230132 0.225486 0.242966 0.248977 0.273295 0.211219 0.225452 0.230132 0.248949 0.242966 0.258174 0.273295 0.295683 0.225452 0.237504 0.248949 0.265499 0.258174 0.268907 0.295683 0.311805 0.237504 0.245695 0.265499 0.277191 0.268907 0.272593 0.311805 0.31878 0.245695 0.248644 0.277191 0.281387 0.272593 0.268868 0.31878 0.311774 0.248644 0.24556 0.281387 0.277051 0.268868 0.257286 0.311774 0.295499 0.24556 0.236782 0.277051 0.265331 0.168744 0.185101 0.175786 0.194515 0.162523 0.176969 0.168788 0.185142 0.185101 0.203995 0.194515 0.216734 0.176969 0.193252 0.185142 0.203984 0.203995 0.225415 0.216734 0.242935 0.193252 0.211157 0.203984 0.22538 0.225415 0.248977 0.242935 0.273287 0.211157 0.230132 0.22538 0.248932 0.248977 0.273295 0.273287 0.306724 0.230132 0.248949 0.248932 0.273255 0.273295 0.295683 0.306724 0.339622 0.248949 0.265499 0.273255 0.295599 0.295683 0.311805 0.339622 0.36512 0.265499 0.277191 0.295599 0.31162 0.311805 0.31878 0.36512 0.37647 0.277191 0.281387 0.31162 0.318608 0.31878 0.311774 0.37647 0.365065 0.281387 0.277051 0.318608 0.311666 0.311774 0.295499 0.365065 0.340211 0.277051 0.265331 0.311666 0.295363 0.175786 0.194515 0.181355 0.202147 0.168788 0.185142 0.173703 0.19169 0.194515 0.216734 0.202147 0.227448 0.185142 0.203984 0.19169 0.212829 0.216734 0.242935 0.227448 0.258228 0.203984 0.22538 0.212829 0.23747 0.242935 0.273287 0.258228 0.295625 0.22538 0.248932 0.23747 0.26549 0.273287 0.306724 0.295625 0.339587 0.248932 0.273255 0.26549 0.295589 0.306724 0.339622 0.339587 0.386296 0.273255 0.295599 0.295589 0.323343 0.339622 0.36512 0.386296 0.427533 0.295599 0.31162 0.323343 0.346997 0.36512 0.37647 0.427533 0.443741 0.31162 0.318608 0.346997 0.355662 0.37647 0.365065 0.443741 0.427751 0.318608 0.311666 0.355662 0.34706 0.365065 0.340211 0.427751 0.388526 0.311666 0.295363 0.34706 0.324611 0.181355 0.202147 0.18495 0.207169 0.173703 0.19169 0.176853 0.195956 0.202147 0.227448 0.207169 0.234677 0.19169 0.212829 0.195956 0.218716 0.227448 0.258228 0.234677 0.269106 0.212829 0.23747 0.218716 0.245701 0.258228 0.295625 0.269106 0.311654 0.23747 0.26549 0.245701 0.277205 0.295625 0.339587 0.311654 0.365056 0.26549 0.295589 0.277205 0.311612 0.339587 0.386296 0.365056 0.427508 0.295589 0.323343 0.311612 0.346989 0.386296 0.427533 0.427508 0.4809 0.323343 0.346997 0.346989 0.374811 0.443741 0.427751 0.504842 0.482153 0.355662 0.34706 0.385719 0.374909 0.427751 0.388526 0.482153 0.42774 0.34706 0.324611 0.374909 0.34737 0.18495 0.207169 0.186195 0.208924 0.176853 0.195956 0.17794 0.197442 0.207169 0.234677 0.208924 0.237262 0.195956 0.218716 0.197442 0.220782 0.234677 0.269106 0.237262 0.272907 0.218716 0.245701 0.220782 0.248674 0.269106 0.311654 0.272907 0.318596 0.245701 0.277205 0.248674 0.281444 0.311654 0.365056 0.318596 0.376405 0.277205 0.311612 0.281444 0.318558 0.365056 0.427508 0.376405 0.44362 0.311612 0.346989 0.318558 0.355652 0.4809 0.504842 0.504791 0.530615 0.374811 0.385719 0.385694 0.397561 0.504842 0.482153 0.530615 0.503057 0.385719 0.374909 0.397561 0.385759 0.186195 0.208924 0.18495 0.207169 0.17794 0.197442 0.176854 0.195956 0.208924 0.237262 0.207169 0.234677 0.197442 0.220782 0.195956 0.218717 0.237262 0.272907 0.234677 0.269106 0.220782 0.248674 0.218717 0.245701 0.272907 0.318596 0.269106 0.311655 0.248674 0.281444 0.245701 0.277203 0.318596 0.376405 0.311655 0.365017 0.281444 0.318558 0.277203 0.311618 0.376405 0.44362 0.365017 0.427825 0.318558 0.355652 0.311618 0.346957 0.44362 0.504791 0.427825 0.481847 0.355652 0.385694 0.346957 0.374806 0.504791 0.530615 0.481847 0.502943 0.385694 0.397561 0.374806 0.385681 0.530615 0.503057 0.502943 0.481024 0.397561 0.385759 0.385681 0.374835 0.18495 0.207169 0.181356 0.202148 0.176854 0.195956 0.173704 0.19169 0.207169 0.234677 0.202148 0.227448 0.195956 0.218717 0.19169 0.21283 0.234677 0.269106 0.227448 0.258229 0.218717 0.245701 0.21283 0.237471 0.269106 0.311655 0.258229 0.295624 0.245701 0.277203 0.237471 0.265492 0.311655 0.365017 0.295624 0.339604 0.277203 0.311618 0.265492 0.295592 0.365017 0.427825 0.339604 0.386284 0.311618 0.346957 0.295592 0.32336 0.427825 0.481847 0.386284 0.427503 0.346957 0.374806 0.32336 0.34701 0.481024 0.428061 0.427537 0.38856 0.374835 0.347384 0.347114 0.324616 0.181356 0.202148 0.175786 0.194515 0.173704 0.19169 0.168789 0.185143 0.202148 0.227448 0.194515 0.216735 0.19169 0.21283 0.185143 0.203986 0.227448 0.258229 0.216735 0.242936 0.21283 0.237471 0.203986 0.225382 0.258229 0.295624 0.242936 0.273291 0.237471 0.265492 0.225382 0.248935 0.295624 0.339604 0.273291 0.306729 0.265492 0.295592 0.248935 0.273261 0.339604 0.386284 0.306729 0.339633 0.295592 0.32336 0.273261 0.295605 0.386284 0.427503 0.339633 0.365136 0.32336 0.34701 0.295605 0.311628 0.427503 0.443258 0.365136 0.376549 0.34701 0.355683 0.311628 0.318625 0.443258 0.427537 0.376549 0.365106 0.355683 0.347114 0.318625 0.311677 0.427537 0.38856 0.365106 0.340217 0.347114 0.324616 0.311677 0.295377 0.175786 0.194515 0.168745 0.185102 0.168789 0.185143 0.162523 0.17697 0.194515 0.216735 0.185102 0.203996 0.185143 0.203986 0.17697 0.193253 0.216735 0.242936 0.203996 0.225417 0.203986 0.225382 0.193253 0.211159 0.242936 0.273291 0.225417 0.248981 0.225382 0.248935 0.211159 0.230136 0.273291 0.306729 0.248981 0.273302 0.248935 0.273261 0.230136 0.248954 0.306729 0.339633 0.273302 0.295692 0.273261 0.295605 0.248954 0.265508 0.339633 0.365136 0.295692 0.311819 0.295605 0.311628 0.265508 0.277203 0.3