<?xml version="1.0" ?> 
<!-- 
# vtk DataFile Version 3.0
#This file was generated by the deal.II library on 16:47:48 at 2019/11/27
-->
<VTKFile type="UnstructuredGrid" version="0.1" byte_order="LittleEndian">
<UnstructuredGrid>
<Piece NumberOfPoints="16512" NumberOfCells="2064" >
  <Points>
    <DataArray type="Float32" NumberOfComponents="3" format="ascii">
-50 -50 0
-40 -50 0
-50 -40 0
-40 -40 0
-50 -50 10
-40 -50 10
-50 -40 10
-40 -40 10
-40 -50 0
-30 -50 0
-40 -40 0
-30 -40 0
-40 -50 10
-30 -50 10
-40 -40 10
-30 -40 10
-30 -50 0
-20 -50 0
-30 -40 0
-20 -40 0
-30 -50 10
-20 -50 10
-30 -40 10
-20 -40 10
-20 -50 0
-10 -50 0
-20 -40 0
-10 -40 0
-20 -50 10
-10 -50 10
-20 -40 10
-10 -40 10
-10 -50 0
0 -50 0
-10 -40 0
0 -40 0
-10 -50 10
0 -50 10
-10 -40 10
0 -40 10
0 -50 0
10 -50 0
0 -40 0
10 -40 0
0 -50 10
10 -50 10
0 -40 10
10 -40 10
10 -50 0
20 -50 0
10 -40 0
20 -40 0
10 -50 10
20 -50 10
10 -40 10
20 -40 10
20 -50 0
30 -50 0
20 -40 0
30 -40 0
20 -50 10
30 -50 10
20 -40 10
30 -40 10
30 -50 0
40 -50 0
30 -40 0
40 -40 0
30 -50 10
40 -50 10
30 -40 10
40 -40 10
40 -50 0
50 -50 0
40 -40 0
50 -40 0
40 -50 10
50 -50 10
40 -40 10
50 -40 10
-50 -40 0
-40 -40 0
-50 -30 0
-40 -30 0
-50 -40 10
-40 -40 10
-50 -30 10
-40 -30 10
-40 -40 0
-30 -40 0
-40 -30 0
-30 -30 0
-40 -40 10
-30 -40 10
-40 -30 10
-30 -30 10
-30 -40 0
-20 -40 0
-30 -30 0
-20 -30 0
-30 -40 10
-20 -40 10
-30 -30 10
-20 -30 10
-20 -40 0
-10 -40 0
-20 -30 0
-10 -30 0
-20 -40 10
-10 -40 10
-20 -30 10
-10 -30 10
-10 -40 0
0 -40 0
-10 -30 0
0 -30 0
-10 -40 10
0 -40 10
-10 -30 10
0 -30 10
0 -40 0
10 -40 0
0 -30 0
10 -30 0
0 -40 10
10 -40 10
0 -30 10
10 -30 10
10 -40 0
20 -40 0
10 -30 0
20 -30 0
10 -40 10
20 -40 10
10 -30 10
20 -30 10
20 -40 0
30 -40 0
20 -30 0
30 -30 0
20 -40 10
30 -40 10
20 -30 10
30 -30 10
30 -40 0
40 -40 0
30 -30 0
40 -30 0
30 -40 10
40 -40 10
30 -30 10
40 -30 10
40 -40 0
50 -40 0
40 -30 0
50 -30 0
40 -40 10
50 -40 10
40 -30 10
50 -30 10
-50 -30 0
-40 -30 0
-50 -20 0
-40 -20 0
-50 -30 10
-40 -30 10
-50 -20 10
-40 -20 10
-40 -30 0
-30 -30 0
-40 -20 0
-30 -20 0
-40 -30 10
-30 -30 10
-40 -20 10
-30 -20 10
-30 -30 0
-20 -30 0
-30 -20 0
-20 -20 0
-30 -30 10
-20 -30 10
-30 -20 10
-20 -20 10
-10 -30 0
0 -30 0
-10 -20 0
0 -20 0
-10 -30 10
0 -30 10
-10 -20 10
0 -20 10
0 -30 0
10 -30 0
0 -20 0
10 -20 0
0 -30 10
10 -30 10
0 -20 10
10 -20 10
10 -30 0
20 -30 0
10 -20 0
20 -20 0
10 -30 10
20 -30 10
10 -20 10
20 -20 10
20 -30 0
30 -30 0
20 -20 0
30 -20 0
20 -30 10
30 -30 10
20 -20 10
30 -20 10
30 -30 0
40 -30 0
30 -20 0
40 -20 0
30 -30 10
40 -30 10
30 -20 10
40 -20 10
40 -30 0
50 -30 0
40 -20 0
50 -20 0
40 -30 10
50 -30 10
40 -20 10
50 -20 10
-10 -20 0
0 -20 0
-10 -10 0
0 -10 0
-10 -20 10
0 -20 10
-10 -10 10
0 -10 10
0 -20 0
10 -20 0
0 -10 0
10 -10 0
0 -20 10
10 -20 10
0 -10 10
10 -10 10
10 -20 0
20 -20 0
10 -10 0
20 -10 0
10 -20 10
20 -20 10
10 -10 10
20 -10 10
20 -20 0
30 -20 0
20 -10 0
30 -10 0
20 -20 10
30 -20 10
20 -10 10
30 -10 10
30 -20 0
40 -20 0
30 -10 0
40 -10 0
30 -20 10
40 -20 10
30 -10 10
40 -10 10
40 -20 0
50 -20 0
40 -10 0
50 -10 0
40 -20 10
50 -20 10
40 -10 10
50 -10 10
10 -10 0
20 -10 0
10 0 0
20 0 0
10 -10 10
20 -10 10
10 0 10
20 0 10
20 -10 0
30 -10 0
20 0 0
30 0 0
20 -10 10
30 -10 10
20 0 10
30 0 10
30 -10 0
40 -10 0
30 0 0
40 0 0
30 -10 10
40 -10 10
30 0 10
40 0 10
40 -10 0
50 -10 0
40 0 0
50 0 0
40 -10 10
50 -10 10
40 0 10
50 0 10
10 0 0
20 0 0
10 10 0
20 10 0
10 0 10
20 0 10
10 10 10
20 10 10
20 0 0
30 0 0
20 10 0
30 10 0
20 0 10
30 0 10
20 10 10
30 10 10
30 0 0
40 0 0
30 10 0
40 10 0
30 0 10
40 0 10
30 10 10
40 10 10
40 0 0
50 0 0
40 10 0
50 10 0
40 0 10
50 0 10
40 10 10
50 10 10
-10 10 0
0 10 0
-10 20 0
0 20 0
-10 10 10
0 10 10
-10 20 10
0 20 10
0 10 0
10 10 0
0 20 0
10 20 0
0 10 10
10 10 10
0 20 10
10 20 10
10 10 0
20 10 0
10 20 0
20 20 0
10 10 10
20 10 10
10 20 10
20 20 10
20 10 0
30 10 0
20 20 0
30 20 0
20 10 10
30 10 10
20 20 10
30 20 10
30 10 0
40 10 0
30 20 0
40 20 0
30 10 10
40 10 10
30 20 10
40 20 10
40 10 0
50 10 0
40 20 0
50 20 0
40 10 10
50 10 10
40 20 10
50 20 10
-50 20 0
-40 20 0
-50 30 0
-40 30 0
-50 20 10
-40 20 10
-50 30 10
-40 30 10
-40 20 0
-30 20 0
-40 30 0
-30 30 0
-40 20 10
-30 20 10
-40 30 10
-30 30 10
-30 20 0
-20 20 0
-30 30 0
-20 30 0
-30 20 10
-20 20 10
-30 30 10
-20 30 10
-10 20 0
0 20 0
-10 30 0
0 30 0
-10 20 10
0 20 10
-10 30 10
0 30 10
0 20 0
10 20 0
0 30 0
10 30 0
0 20 10
10 20 10
0 30 10
10 30 10
10 20 0
20 20 0
10 30 0
20 30 0
10 20 10
20 20 10
10 30 10
20 30 10
20 20 0
30 20 0
20 30 0
30 30 0
20 20 10
30 20 10
20 30 10
30 30 10
30 20 0
40 20 0
30 30 0
40 30 0
30 20 10
40 20 10
30 30 10
40 30 10
40 20 0
50 20 0
40 30 0
50 30 0
40 20 10
50 20 10
40 30 10
50 30 10
-50 30 0
-40 30 0
-50 40 0
-40 40 0
-50 30 10
-40 30 10
-50 40 10
-40 40 10
-40 30 0
-30 30 0
-40 40 0
-30 40 0
-40 30 10
-30 30 10
-40 40 10
-30 40 10
-30 30 0
-20 30 0
-30 40 0
-20 40 0
-30 30 10
-20 30 10
-30 40 10
-20 40 10
-20 30 0
-10 30 0
-20 40 0
-10 40 0
-20 30 10
-10 30 10
-20 40 10
-10 40 10
-10 30 0
0 30 0
-10 40 0
0 40 0
-10 30 10
0 30 10
-10 40 10
0 40 10
0 30 0
10 30 0
0 40 0
10 40 0
0 30 10
10 30 10
0 40 10
10 40 10
10 30 0
20 30 0
10 40 0
20 40 0
10 30 10
20 30 10
10 40 10
20 40 10
20 30 0
30 30 0
20 40 0
30 40 0
20 30 10
30 30 10
20 40 10
30 40 10
30 30 0
40 30 0
30 40 0
40 40 0
30 30 10
40 30 10
30 40 10
40 40 10
40 30 0
50 30 0
40 40 0
50 40 0
40 30 10
50 30 10
40 40 10
50 40 10
-50 40 0
-40 40 0
-50 50 0
-40 50 0
-50 40 10
-40 40 10
-50 50 10
-40 50 10
-40 40 0
-30 40 0
-40 50 0
-30 50 0
-40 40 10
-30 40 10
-40 50 10
-30 50 10
-30 40 0
-20 40 0
-30 50 0
-20 50 0
-30 40 10
-20 40 10
-30 50 10
-20 50 10
-20 40 0
-10 40 0
-20 50 0
-10 50 0
-20 40 10
-10 40 10
-20 50 10
-10 50 10
-10 40 0
0 40 0
-10 50 0
0 50 0
-10 40 10
0 40 10
-10 50 10
0 50 10
0 40 0
10 40 0
0 50 0
10 50 0
0 40 10
10 40 10
0 50 10
10 50 10
10 40 0
20 40 0
10 50 0
20 50 0
10 40 10
20 40 10
10 50 10
20 50 10
20 40 0
30 40 0
20 50 0
30 50 0
20 40 10
30 40 10
20 50 10
30 50 10
30 40 0
40 40 0
30 50 0
40 50 0
30 40 10
40 40 10
30 50 10
40 50 10
40 40 0
50 40 0
40 50 0
50 50 0
40 40 10
50 40 10
40 50 10
50 50 10
-50 -50 10
-40 -50 10
-50 -40 10
-40 -40 10
-50 -50 20
-40 -50 20
-50 -40 20
-40 -40 20
-40 -50 10
-30 -50 10
-40 -40 10
-30 -40 10
-40 -50 20
-30 -50 20
-40 -40 20
-30 -40 20
-30 -50 10
-20 -50 10
-30 -40 10
-20 -40 10
-30 -50 20
-20 -50 20
-30 -40 20
-20 -40 20
-20 -50 10
-10 -50 10
-20 -40 10
-10 -40 10
-20 -50 20
-10 -50 20
-20 -40 20
-10 -40 20
-10 -50 10
0 -50 10
-10 -40 10
0 -40 10
-10 -50 20
0 -50 20
-10 -40 20
0 -40 20
0 -50 10
10 -50 10
0 -40 10
10 -40 10
0 -50 20
10 -50 20
0 -40 20
10 -40 20
10 -50 10
20 -50 10
10 -40 10
20 -40 10
10 -50 20
20 -50 20
10 -40 20
20 -40 20
20 -50 10
30 -50 10
20 -40 10
30 -40 10
20 -50 20
30 -50 20
20 -40 20
30 -40 20
30 -50 10
40 -50 10
30 -40 10
40 -40 10
30 -50 20
40 -50 20
30 -40 20
40 -40 20
40 -50 10
50 -50 10
40 -40 10
50 -40 10
40 -50 20
50 -50 20
40 -40 20
50 -40 20
-50 -40 10
-40 -40 10
-50 -30 10
-40 -30 10
-50 -40 20
-40 -40 20
-50 -30 20
-40 -30 20
-40 -40 10
-30 -40 10
-40 -30 10
-30 -30 10
-40 -40 20
-30 -40 20
-40 -30 20
-30 -30 20
-30 -40 10
-20 -40 10
-30 -30 10
-20 -30 10
-30 -40 20
-20 -40 20
-30 -30 20
-20 -30 20
-20 -40 10
-10 -40 10
-20 -30 10
-10 -30 10
-20 -40 20
-10 -40 20
-20 -30 20
-10 -30 20
-10 -40 10
0 -40 10
-10 -30 10
0 -30 10
-10 -40 20
0 -40 20
-10 -30 20
0 -30 20
0 -40 10
10 -40 10
0 -30 10
10 -30 10
0 -40 20
10 -40 20
0 -30 20
10 -30 20
10 -40 10
20 -40 10
10 -30 10
20 -30 10
10 -40 20
20 -40 20
10 -30 20
20 -30 20
20 -40 10
30 -40 10
20 -30 10
30 -30 10
20 -40 20
30 -40 20
20 -30 20
30 -30 20
30 -40 10
40 -40 10
30 -30 10
40 -30 10
30 -40 20
40 -40 20
30 -30 20
40 -30 20
40 -40 10
50 -40 10
40 -30 10
50 -30 10
40 -40 20
50 -40 20
40 -30 20
50 -30 20
-40 -30 10
-30 -30 10
-40 -20 10
-30 -20 10
-40 -30 20
-30 -30 20
-40 -20 20
-30 -20 20
0 -30 10
10 -30 10
0 -20 10
10 -20 10
0 -30 20
10 -30 20
0 -20 20
10 -20 20
10 -30 10
20 -30 10
10 -20 10
20 -20 10
10 -30 20
20 -30 20
10 -20 20
20 -20 20
20 -30 10
30 -30 10
20 -20 10
30 -20 10
20 -30 20
30 -30 20
20 -20 20
30 -20 20
30 -30 10
40 -30 10
30 -20 10
40 -20 10
30 -30 20
40 -30 20
30 -20 20
40 -20 20
40 -30 10
50 -30 10
40 -20 10
50 -20 10
40 -30 20
50 -30 20
40 -20 20
50 -20 20
0 -20 10
10 -20 10
0 -10 10
10 -10 10
0 -20 20
10 -20 20
0 -10 20
10 -10 20
10 -20 10
20 -20 10
10 -10 10
20 -10 10
10 -20 20
20 -20 20
10 -10 20
20 -10 20
20 -20 10
30 -20 10
20 -10 10
30 -10 10
20 -20 20
30 -20 20
20 -10 20
30 -10 20
30 -20 10
40 -20 10
30 -10 10
40 -10 10
30 -20 20
40 -20 20
30 -10 20
40 -10 20
40 -20 10
50 -20 10
40 -10 10
50 -10 10
40 -20 20
50 -20 20
40 -10 20
50 -10 20
-10 -10 10
0 -10 10
-10 0 10
0 0 10
-10 -10 20
0 -10 20
-10 0 20
0 0 20
0 -10 10
10 -10 10
0 0 10
10 0 10
0 -10 20
10 -10 20
0 0 20
10 0 20
10 -10 10
20 -10 10
10 0 10
20 0 10
10 -10 20
20 -10 20
10 0 20
20 0 20
20 -10 10
30 -10 10
20 0 10
30 0 10
20 -10 20
30 -10 20
20 0 20
30 0 20
30 -10 10
40 -10 10
30 0 10
40 0 10
30 -10 20
40 -10 20
30 0 20
40 0 20
40 -10 10
50 -10 10
40 0 10
50 0 10
40 -10 20
50 -10 20
40 0 20
50 0 20
-10 0 10
0 0 10
-10 10 10
0 10 10
-10 0 20
0 0 20
-10 10 20
0 10 20
0 0 10
10 0 10
0 10 10
10 10 10
0 0 20
10 0 20
0 10 20
10 10 20
10 0 10
20 0 10
10 10 10
20 10 10
10 0 20
20 0 20
10 10 20
20 10 20
20 0 10
30 0 10
20 10 10
30 10 10
20 0 20
30 0 20
20 10 20
30 10 20
30 0 10
40 0 10
30 10 10
40 10 10
30 0 20
40 0 20
30 10 20
40 10 20
40 0 10
50 0 10
40 10 10
50 10 10
40 0 20
50 0 20
40 10 20
50 10 20
0 10 10
10 10 10
0 20 10
10 20 10
0 10 20
10 10 20
0 20 20
10 20 20
10 10 10
20 10 10
10 20 10
20 20 10
10 10 20
20 10 20
10 20 20
20 20 20
20 10 10
30 10 10
20 20 10
30 20 10
20 10 20
30 10 20
20 20 20
30 20 20
30 10 10
40 10 10
30 20 10
40 20 10
30 10 20
40 10 20
30 20 20
40 20 20
40 10 10
50 10 10
40 20 10
50 20 10
40 10 20
50 10 20
40 20 20
50 20 20
-40 20 10
-30 20 10
-40 30 10
-30 30 10
-40 20 20
-30 20 20
-40 30 20
-30 30 20
0 20 10
10 20 10
0 30 10
10 30 10
0 20 20
10 20 20
0 30 20
10 30 20
10 20 10
20 20 10
10 30 10
20 30 10
10 20 20
20 20 20
[...]
  <PointData Scalars="scalars">
    <DataArray type="Float32" Name="u" format="ascii">
0.302471 0.316387 0.371219 0.394018 0.297197 0.310268 0.361559 0.382224 0.316387 0.316753 0.394018 0.394176 0.310268 0.310624 0.382224 0.382394 0.316753 0.304953 0.394176 0.372062 0.310624 0.299475 0.382394 0.362534 0.304953 0.284401 0.372062 0.337757 0.299475 0.279998 0.362534 0.330575 0.284401 0.261189 0.337757 0.299761 0.279998 0.257778 0.330575 0.294802 0.261189 0.237055 0.299761 0.264796 0.257778 0.234527 0.294802 0.26122 0.237055 0.2145 0.264796 0.2343 0.234527 0.212603 0.26122 0.231859 0.2145 0.19431 0.2343 0.208709 0.212603 0.192901 0.231859 0.206958 0.19431 0.176657 0.208709 0.187284 0.192901 0.175594 0.206958 0.186019 0.176657 0.161123 0.187284 0.169419 0.175594 0.16032 0.186019 0.168483 0.371219 0.394018 0.474329 0.52331 0.361559 0.382224 0.455266 0.492776 0.394018 0.394176 0.52331 0.523076 0.382224 0.382394 0.492776 0.492349 0.394176 0.372062 0.523076 0.472896 0.382394 0.362534 0.492349 0.456208 0.372062 0.337757 0.472896 0.410215 0.362534 0.330575 0.456208 0.396539 0.337757 0.299761 0.410215 0.346251 0.330575 0.294802 0.396539 0.337668 0.299761 0.264796 0.346251 0.294223 0.294802 0.26122 0.337668 0.289543 0.264796 0.2343 0.294223 0.254277 0.26122 0.231859 0.289543 0.251008 0.2343 0.208709 0.254277 0.222393 0.231859 0.206958 0.251008 0.220273 0.208709 0.187284 0.222393 0.197036 0.206958 0.186019 0.220273 0.195566 0.187284 0.169419 0.197036 0.176544 0.186019 0.168483 0.195566 0.175481 0.474329 0.52331 0.65266 0.783486 0.455266 0.492776 0.598962 0.695962 0.52331 0.523076 0.783486 0.784354 0.492776 0.492349 0.695962 0.695458 0.523076 0.472896 0.784354 0.641397 0.492349 0.456208 0.695458 0.595119 0.410215 0.346251 0.501527 0.395516 0.396539 0.337668 0.475586 0.383578 0.346251 0.294223 0.395516 0.323183 0.337668 0.289543 0.383578 0.316513 0.294223 0.254277 0.323183 0.272386 0.289543 0.251008 0.316513 0.267884 0.254277 0.222393 0.272386 0.234001 0.251008 0.220273 0.267884 0.231559 0.222393 0.197036 0.234001 0.205038 0.220273 0.195566 0.231559 0.203342 0.197036 0.176544 0.205038 0.182189 0.195566 0.175481 0.203342 0.181029 0.501527 0.395516 0.5961 0.438216 0.475586 0.383578 0.555271 0.419588 0.395516 0.323183 0.438216 0.344792 0.383578 0.316513 0.419588 0.337014 0.323183 0.272386 0.344792 0.284425 0.316513 0.267884 0.337014 0.279897 0.272386 0.234001 0.284425 0.24277 0.267884 0.231559 0.279897 0.239245 0.234001 0.205038 0.24277 0.210295 0.231559 0.203342 0.239245 0.208556 0.205038 0.182189 0.210295 0.18587 0.203342 0.181029 0.208556 0.184603 0.344792 0.284425 0.357148 0.289068 0.337014 0.279897 0.344999 0.284401 0.284425 0.24277 0.289068 0.245195 0.279897 0.239245 0.284401 0.242784 0.24277 0.210295 0.245195 0.212282 0.239245 0.208556 0.242784 0.2103 0.210295 0.18587 0.212282 0.187113 0.208556 0.184603 0.2103 0.185871 0.357148 0.289068 0.344792 0.284424 0.344999 0.284401 0.337014 0.279897 0.289068 0.245195 0.284424 0.24277 0.284401 0.242784 0.279897 0.239245 0.245195 0.212282 0.24277 0.210295 0.242784 0.2103 0.239245 0.208556 0.212282 0.187113 0.210295 0.18587 0.2103 0.185871 0.208556 0.184603 0.596098 0.438216 0.501527 0.395515 0.555269 0.419587 0.475585 0.383578 0.438216 0.344792 0.395515 0.323183 0.419587 0.337014 0.383578 0.316513 0.344792 0.284424 0.323183 0.272386 0.337014 0.279897 0.316513 0.267884 0.284424 0.24277 0.272386 0.234001 0.279897 0.239245 0.267884 0.231559 0.24277 0.210295 0.234001 0.205038 0.239245 0.208556 0.231559 0.203342 0.210295 0.18587 0.205038 0.182189 0.208556 0.184603 0.203342 0.181029 0.652661 0.783498 0.474331 0.523313 0.598962 0.695965 0.455267 0.492778 0.783498 0.784366 0.523313 0.523079 0.695965 0.695461 0.492778 0.492351 0.784366 0.641398 0.523079 0.472897 0.695461 0.595119 0.492351 0.456209 0.501527 0.395515 0.410215 0.346251 0.475585 0.383578 0.396539 0.337668 0.395515 0.323183 0.346251 0.294223 0.383578 0.316513 0.337668 0.289543 0.323183 0.272386 0.294223 0.254277 0.316513 0.267884 0.289543 0.251008 0.272386 0.234001 0.254277 0.222393 0.267884 0.231559 0.251008 0.220273 0.234001 0.205038 0.222393 0.197036 0.231559 0.203342 0.220273 0.195566 0.205038 0.182189 0.197036 0.176544 0.203342 0.181029 0.195566 0.175481 0.474331 0.523313 0.37122 0.394019 0.455267 0.492778 0.36156 0.382225 0.523313 0.523079 0.394019 0.394177 0.492778 0.492351 0.382225 0.382395 0.523079 0.472897 0.394177 0.372062 0.492351 0.456209 0.382395 0.362535 0.472897 0.410215 0.372062 0.337757 0.456209 0.396539 0.362535 0.330575 0.410215 0.346251 0.337757 0.299761 0.396539 0.337668 0.330575 0.294802 0.346251 0.294223 0.299761 0.264796 0.337668 0.289543 0.294802 0.26122 0.294223 0.254277 0.264796 0.2343 0.289543 0.251008 0.26122 0.231859 0.254277 0.222393 0.2343 0.208709 0.251008 0.220273 0.231859 0.206958 0.222393 0.197036 0.208709 0.187284 0.220273 0.195566 0.206958 0.186019 0.197036 0.176544 0.187284 0.169419 0.195566 0.175481 0.186019 0.168483 0.37122 0.394019 0.302472 0.316388 0.36156 0.382225 0.297197 0.310269 0.394019 0.394177 0.316388 0.316754 0.382225 0.382395 0.310269 0.310624 0.394177 0.372062 0.316754 0.304954 0.382395 0.362535 0.310624 0.299475 0.372062 0.337757 0.304954 0.284402 0.362535 0.330575 0.299475 0.279998 0.337757 0.299761 0.284402 0.261189 0.330575 0.294802 0.279998 0.257778 0.299761 0.264796 0.261189 0.237055 0.294802 0.26122 0.257778 0.234527 0.264796 0.2343 0.237055 0.2145 0.26122 0.231859 0.234527 0.212603 0.2343 0.208709 0.2145 0.19431 0.231859 0.206958 0.212603 0.192901 0.208709 0.187284 0.19431 0.176657 0.206958 0.186019 0.192901 0.175594 0.187284 0.169419 0.176657 0.161123 0.186019 0.168483 0.175594 0.160319 0.297197 0.310268 0.361559 0.382224 0.283017 0.29404 0.336964 0.353492 0.310268 0.310624 0.382224 0.382394 0.29404 0.294271 0.353492 0.353631 0.310624 0.299475 0.382394 0.362534 0.294271 0.28378 0.353631 0.337403 0.299475 0.279998 0.362534 0.330575 0.28378 0.268362 0.337403 0.310779 0.279998 0.257778 0.330575 0.294802 0.268362 0.248332 0.310779 0.280827 0.257778 0.234527 0.294802 0.26122 0.248332 0.22735 0.280827 0.251415 0.234527 0.212603 0.26122 0.231859 0.22735 0.207209 0.251415 0.224911 0.212603 0.192901 0.231859 0.206958 0.207209 0.188841 0.224911 0.201964 0.192901 0.175594 0.206958 0.186019 0.188841 0.172515 0.201964 0.18237 0.175594 0.16032 0.186019 0.168483 0.172515 0.157977 0.18237 0.165762 0.361559 0.382224 0.455266 0.492776 0.336964 0.353492 0.412859 0.439063 0.382224 0.382394 0.492776 0.492349 0.353492 0.353631 0.439063 0.439121 0.382394 0.362534 0.492349 0.456208 0.353631 0.337403 0.439121 0.41093 0.362534 0.330575 0.456208 0.396539 0.337403 0.310779 0.41093 0.363567 0.330575 0.294802 0.396539 0.337668 0.310779 0.280827 0.363567 0.317333 0.294802 0.26122 0.337668 0.289543 0.280827 0.251415 0.317333 0.27638 0.26122 0.231859 0.289543 0.251008 0.251415 0.224911 0.27638 0.242213 0.231859 0.206958 0.251008 0.220273 0.224911 0.201964 0.242213 0.214272 0.206958 0.186019 0.220273 0.195566 0.201964 0.18237 0.214272 0.191336 0.186019 0.168483 0.195566 0.175481 0.18237 0.165762 0.191336 0.172411 0.492776 0.492349 0.695962 0.695458 0.439063 0.439121 0.552127 0.551514 0.337668 0.289543 0.383578 0.316513 0.317333 0.27638 0.354881 0.298745 0.289543 0.251008 0.316513 0.267884 0.27638 0.242213 0.298745 0.257423 0.251008 0.220273 0.267884 0.231559 0.242213 0.214272 0.257423 0.224587 0.220273 0.195566 0.231559 0.203342 0.214272 0.191336 0.224587 0.19858 0.195566 0.175481 0.203342 0.181029 0.191336 0.172411 0.19858 0.177654 0.383578 0.316513 0.419588 0.337014 0.354881 0.298745 0.383624 0.316615 0.316513 0.267884 0.337014 0.279897 0.298745 0.257423 0.316615 0.268607 0.267884 0.231559 0.279897 0.239245 0.257423 0.224587 0.268607 0.231525 0.231559 0.203342 0.239245 0.208556 0.224587 0.19858 0.231525 0.203359 0.203342 0.181029 0.208556 0.184603 0.19858 0.177654 0.203359 0.181034 0.555271 0.419588 0.596093 0.437672 0.4756 0.383624 0.50156 0.395489 0.419588 0.337014 0.437672 0.344999 0.383624 0.316615 0.395489 0.32315 0.337014 0.279897 0.344999 0.284401 0.316615 0.268607 0.32315 0.272084 0.279897 0.239245 0.284401 0.242784 0.268607 0.231525 0.272084 0.234094 0.239245 0.208556 0.242784 0.2103 0.231525 0.203359 0.234094 0.205045 0.208556 0.184603 0.2103 0.185871 0.203359 0.181034 0.205045 0.182198 0.596093 0.437672 0.555269 0.419587 0.50156 0.395489 0.475599 0.383623 0.437672 0.344999 0.419587 0.337014 0.395489 0.32315 0.383623 0.316615 0.344999 0.284401 0.337014 0.279897 0.32315 0.272084 0.316615 0.268607 0.284401 0.242784 0.279897 0.239245 0.272084 0.234094 0.268607 0.231524 0.242784 0.2103 0.239245 0.208556 0.234094 0.205045 0.231524 0.203359 0.2103 0.185871 0.208556 0.184603 0.205045 0.182198 0.203359 0.181034 0.419587 0.337014 0.383578 0.316513 0.383623 0.316615 0.35488 0.298745 0.337014 0.279897 0.316513 0.267884 0.316615 0.268607 0.298745 0.257423 0.279897 0.239245 0.267884 0.231559 0.268607 0.231524 0.257423 0.224587 0.239245 0.208556 0.231559 0.203342 0.231524 0.203359 0.224587 0.19858 0.208556 0.184603 0.203342 0.181029 0.203359 0.181034 0.19858 0.177654 0.695965 0.695461 0.492778 0.492351 0.552126 0.551512 0.439064 0.439122 0.383578 0.316513 0.337668 0.289543 0.35488 0.298745 0.317333 0.27638 0.316513 0.267884 0.289543 0.251008 0.298745 0.257423 0.27638 0.242213 0.267884 0.231559 0.251008 0.220273 0.257423 0.224587 0.242213 0.214272 0.231559 0.203342 0.220273 0.195566 0.224587 0.19858 0.214272 0.191336 0.203342 0.181029 0.195566 0.175481 0.19858 0.177654 0.191336 0.172411 0.455267 0.492778 0.36156 0.382225 0.412859 0.439064 0.336964 0.353493 0.492778 0.492351 0.382225 0.382395 0.439064 0.439122 0.353493 0.353631 0.492351 0.456209 0.382395 0.362535 0.439122 0.41093 0.353631 0.337403 0.456209 0.396539 0.362535 0.330575 0.41093 0.363567 0.337403 0.310779 0.396539 0.337668 0.330575 0.294802 0.363567 0.317333 0.310779 0.280827 0.337668 0.289543 0.294802 0.26122 0.317333 0.27638 0.280827 0.251415 0.289543 0.251008 0.26122 0.231859 0.27638 0.242213 0.251415 0.224911 0.251008 0.220273 0.231859 0.206958 0.242213 0.214272 0.224911 0.201964 0.220273 0.195566 0.206958 0.186019 0.214272 0.191336 0.201964 0.18237 0.195566 0.175481 0.186019 0.168483 0.191336 0.172411 0.18237 0.165762 0.36156 0.382225 0.297197 0.310269 0.336964 0.353493 0.283017 0.294041 0.382225 0.382395 0.310269 0.310624 0.353493 0.353631 0.294041 0.294271 0.382395 0.362535 0.310624 0.299475 0.353631 0.337403 0.294271 0.28378 0.362535 0.330575 0.299475 0.279998 0.337403 0.310779 0.28378 0.268362 0.330575 0.294802 0.279998 0.257778 0.310779 0.280827 0.268362 0.248332 0.294802 0.26122 0.257778 0.234527 0.280827 0.251415 0.248332 0.22735 0.26122 0.231859 0.234527 0.212603 0.251415 0.224911 0.22735 0.207209 0.231859 0.206958 0.212603 0.192901 0.224911 0.201964 0.207209 0.188841 0.206958 0.186019 0.192901 0.175594 0.201964 0.18237 0.188841 0.172515 0.186019 0.168483 0.175594 0.160319 0.18237 0.165762 0.172515 0.157977 0.283017 0.29404 0.336964 0.353492 0.263547 0.271681 0.304869 0.316863 0.29404 0.294271 0.353492 0.353631 0.271681 0.271868 0.316863 0.316971 0.294271 0.28378 0.353631 0.337403 0.271868 0.264581 0.316971 0.305189 0.28378 0.268362 0.337403 0.310779 0.264581 0.251301 0.305189 0.285295 0.268362 0.248332 0.310779 0.280827 0.251301 0.234649 0.285295 0.261475 0.248332 0.22735 0.280827 0.251415 0.234649 0.21669 0.261475 0.237211 0.22735 0.207209 0.251415 0.224911 0.21669 0.199038 0.237211 0.214572 0.207209 0.188841 0.224911 0.201964 0.199038 0.182593 0.214572 0.194376 0.188841 0.172515 0.201964 0.18237 0.182593 0.167716 0.194376 0.176727 0.172515 0.157977 0.18237 0.165762 0.167716 0.154284 0.176727 0.161497 0.336964 0.353492 0.412859 0.439063 0.304869 0.316863 0.355108 0.372543 0.353492 0.353631 0.439063 0.439121 0.316863 0.316971 0.372543 0.372413 0.353631 0.337403 0.439121 0.41093 0.316971 0.305189 0.372413 0.354359 0.337403 0.310779 0.41093 0.363567 0.305189 0.285295 0.354359 0.323986 0.310779 0.280827 0.363567 0.317333 0.285295 0.261475 0.323986 0.29017 0.280827 0.251415 0.317333 0.27638 0.261475 0.237211 0.29017 0.257887 0.251415 0.224911 0.27638 0.242213 0.237211 0.214572 0.257887 0.229472 0.224911 0.201964 0.242213 0.214272 0.214572 0.194376 0.229472 0.205277 0.201964 0.18237 0.214272 0.191336 0.194376 0.176727 0.205277 0.18485 0.18237 0.165762 0.191336 0.172411 0.176727 0.161497 0.18485 0.167628 0.439063 0.439121 0.552127 0.551514 0.372543 0.372413 0.439029 0.439076 0.363567 0.317333 0.422003 0.354881 0.323986 0.29017 0.363507 0.317364 0.317333 0.27638 0.354881 0.298745 0.29017 0.257887 0.317364 0.276246 0.27638 0.242213 0.298745 0.257423 0.257887 0.229472 0.276246 0.242212 0.242213 0.214272 0.257423 0.224587 0.229472 0.205277 0.242212 0.214292 0.214272 0.191336 0.224587 0.19858 0.205277 0.18485 0.214292 0.191352 0.191336 0.172411 0.19858 0.177654 0.18485 0.167628 0.191352 0.17243 0.552127 0.551514 0.696002 0.695544 0.439029 0.439076 0.492732 0.492313 0.354881 0.298745 0.383624 0.316615 0.317364 0.276246 0.337723 0.289326 0.298745 0.257423 0.316615 0.268607 0.276246 0.242212 0.289326 0.251011 0.257423 0.224587 0.268607 0.231525 0.242212 0.214292 0.251011 0.220313 0.224587 0.19858 0.231525 0.203359 0.214292 0.191352 0.220313 0.195591 0.19858 0.177654 0.203359 0.181034 0.191352 0.17243 0.195591 0.175508 0.598764 0.696002 0.652287 0.783641 0.455118 0.492732 0.474119 0.52327 0.696002 0.695544 0.783641 0.784581 0.492732 0.492313 0.52327 0.523062 0.695544 0.595157 0.784581 0.641473 0.492313 0.456167 0.523062 0.472872 0.4756 0.383624 0.50156 0.395489 0.396499 0.337723 0.410263 0.346269 0.383624 0.316615 0.395489 0.32315 0.337723 0.289326 0.346269 0.294137 0.316615 0.268607 0.32315 0.272084 0.289326 0.251011 0.294137 0.254189 0.268607 0.231525 0.272084 0.234094 0.251011 0.220313 0.254189 0.22242 0.231525 0.203359 0.234094 0.205045 0.220313 0.195591 0.22242 0.197069 0.203359 0.181034 0.205045 0.182198 0.195591 0.175508 0.197069 0.176571 0.652287 0.783641 0.598761 0.695998 0.474119 0.52327 0.455117 0.492731 0.783641 0.784581 0.695998 0.695539 0.52327 0.523062 0.492731 0.492312 0.784581 0.641473 0.695539 0.595154 0.523062 0.472872 0.492312 0.456166 0.50156 0.395489 0.475599 0.383623 0.410263 0.346269 0.396499 0.337722 0.395489 0.32315 0.383623 0.316615 0.346269 0.294137 0.337722 0.289326 0.32315 0.272084 0.316615 0.268607 0.294137 0.254189 0.289326 0.251011 0.272084 0.234094 0.268607 0.231524 0.254189 0.22242 0.251011 0.220313 0.234094 0.205045 0.231524 0.203359 0.22242 0.197069 0.220313 0.195591 0.205045 0.182198 0.203359 0.181034 0.197069 0.176571 0.195591 0.175508 0.695998 0.695539 0.552126 0.551512 0.492731 0.492312 0.439028 0.439075 0.383623 0.316615 0.35488 0.298745 0.337722 0.289326 0.317363 0.276246 0.316615 0.268607 0.298745 0.257423 0.289326 0.251011 0.276246 0.242212 0.268607 0.231524 0.257423 0.224587 0.251011 0.220313 0.242212 0.214292 0.231524 0.203359 0.224587 0.19858 0.220313 0.195591 0.214292 0.191352 0.203359 0.181034 0.19858 0.177654 0.195591 0.175508 0.191352 0.17243 0.552126 0.551512 0.439064 0.439122 0.439028 0.439075 0.372542 0.372413 0.422003 0.35488 0.363567 0.317333 0.363506 0.317363 0.323986 0.29017 0.35488 0.298745 0.317333 0.27638 0.317363 0.276246 0.29017 0.257887 0.298745 0.257423 0.27638 0.242213 0.276246 0.242212 0.257887 0.229472 0.257423 0.224587 0.242213 0.214272 0.242212 0.214292 0.229472 0.205277 0.224587 0.19858 0.214272 0.191336 0.214292 0.191352 0.205277 0.18485 0.19858 0.177654 0.191336 0.172411 0.191352 0.17243 0.18485 0.167628 0.412859 0.439064 0.336964 0.353493 0.355108 0.372542 0.304869 0.316863 0.439064 0.439122 0.353493 0.353631 0.372542 0.372413 0.316863 0.316971 0.439122 0.41093 0.353631 0.337403 0.372413 0.354359 0.316971 0.305189 0.41093 0.363567 0.337403 0.310779 0.354359 0.323986 0.305189 0.285295 0.363567 0.317333 0.310779 0.280827 0.323986 0.29017 0.285295 0.261475 0.317333 0.27638 0.280827 0.251415 0.29017 0.257887 0.261475 0.237211 0.27638 0.242213 0.251415 0.224911 0.257887 0.229472 0.237211 0.214572 0.242213 0.214272 0.224911 0.201964 0.229472 0.205277 0.214572 0.194376 0.214272 0.191336 0.201964 0.18237 0.205277 0.18485 0.194376 0.176727 0.191336 0.172411 0.18237 0.165762 0.18485 0.167628 0.176727 0.161497 0.336964 0.353493 0.283017 0.294041 0.304869 0.316863 0.263547 0.271681 0.353493 0.353631 0.294041 0.294271 0.316863 0.316971 0.271681 0.271868 0.353631 0.337403 0.294271 0.28378 0.316971 0.305189 0.271868 0.264581 0.337403 0.310779 0.28378 0.268362 0.305189 0.285295 0.264581 0.251301 0.310779 0.280827 0.268362 0.248332 0.285295 0.261475 0.251301 0.234649 0.280827 0.251415 0.248332 0.22735 0.261475 0.237211 0.234649 0.216689 0.251415 0.224911 0.22735 0.207209 0.237211 0.214572 0.216689 0.199037 0.224911 0.201964 0.207209 0.188841 0.214572 0.194376 0.199037 0.182593 0.201964 0.18237 0.188841 0.172515 0.194376 0.176727 0.182593 0.167716 0.18237 0.165762 0.172515 0.157977 0.176727 0.161497 0.167716 0.154284 0.263547 0.271681 0.304869 0.316863 0.241757 0.247959 0.272237 0.280487 0.271681 0.271868 0.316863 0.316971 0.247959 0.248071 0.280487 0.280592 0.271868 0.264581 0.316971 0.305189 0.248071 0.242413 0.280592 0.272404 0.264581 0.251301 0.305189 0.285295 0.242413 0.232091 0.272404 0.257942 0.251301 0.234649 0.285295 0.261475 0.232091 0.218722 0.257942 0.23991 0.234649 0.21669 0.261475 0.237211 0.218722 0.203944 0.23991 0.220771 0.21669 0.199038 0.237211 0.214572 0.203944 0.189026 0.220771 0.202184 0.199038 0.182593 0.214572 0.194376 0.189026 0.174777 0.202184 0.185032 0.182593 0.167716 0.194376 0.176727 0.174777 0.161605 0.185032 0.169621 0.167716 0.154284 0.176727 0.161497 0.161605 0.149506 0.169621 0.156028 0.304869 0.316863 0.355108 0.372543 0.272237 0.280487 0.304788 0.31682 0.316863 0.316971 0.372543 0.372413 0.280487 0.280592 0.31682 0.316836 0.316971 0.305189 0.372413 0.354359 0.280592 0.272404 0.316836 0.305079 0.305189 0.285295 0.354359 0.323986 0.272404 0.257942 0.305079 0.285225 0.285295 0.261475 0.323986 0.29017 0.257942 0.23991 0.285225 0.261408 0.261475 0.237211 0.29017 0.257887 0.23991 0.220771 0.261408 0.237146 0.237211 0.214572 0.257887 0.229472 0.220771 0.202184 0.237146 0.214534 0.214572 0.194376 0.229472 0.205277 0.202184 0.185032 0.214534 0.194368 0.194376 0.176727 0.205277 0.18485 0.185032 0.169621 0.194368 0.176767 0.176727 0.161497 0.18485 0.167628 0.169621 0.156028 0.176767 0.16154 0.355108 0.372543 0.412809 0.439029 0.304788 0.31682 0.337035 0.353442 0.372543 0.372413 0.439029 0.439076 0.31682 0.316836 0.353442 0.353484 0.372413 0.354359 0.439076 0.410866 0.316836 0.305079 0.353484 0.33707 0.354359 0.323986 0.410866 0.363507 0.305079 0.285225 0.33707 0.310729 0.323986 0.29017 0.363507 0.317364 0.285225 0.261408 0.310729 0.28068 0.29017 0.257887 0.317364 0.276246 0.261408 0.237146 0.28068 0.251315 0.257887 0.229472 0.276246 0.242212 0.237146 0.214534 0.251315 0.224848 0.229472 0.205277 0.242212 0.214292 0.214534 0.194368 0.224848 0.201959 0.205277 0.18485 0.214292 0.191352 0.194368 0.176767 0.201959 0.18243 0.18485 0.167628 0.191352 0.17243 0.176767 0.16154 0.18243 0.165827 0.412809 0.439029 0.455118 0.492732 0.337035 0.353442 0.361632 0.38219 0.439029 0.439076 0.492732 0.492313 0.353442 0.353484 0.38219 0.382243 0.439076 0.410866 0.492313 0.456167 0.353484 0.33707 0.382243 0.362285 0.410866 0.363507 0.456167 0.396499 0.33707 0.310729 0.362285 0.329748 0.363507 0.317364 0.396499 0.337723 0.310729 0.28068 0.329748 0.294569 0.317364 0.276246 0.337723 0.289326 0.28068 0.251315 0.294569 0.261114 0.276246 0.242212 0.289326 0.251011 0.251315 0.224848 0.261114 0.231781 0.242212 0.214292 0.251011 0.220313 0.224848 0.201959 0.231781 0.206954 0.214292 0.191352 0.220313 0.195591 0.201959 0.18243 0.206954 0.186092 0.191352 0.17243 0.195591 0.175508 0.18243 0.165827 0.186092 0.168558 0.455118 0.492732 0.474119 0.52327 0.361632 0.38219 0.371286 0.393986 0.492732 0.492313 0.52327 0.523062 0.38219 0.382243 0.393986 0.394028 0.492313 0.456167 0.523062 0.472872 0.382243 0.362285 0.394028 0.371855 0.456167 0.396499 0.472872 0.410263 0.362285 0.329748 0.371855 0.337314 0.39649