<?xml version="1.0" ?> 
<!-- 
# vtk DataFile Version 3.0
#This file was generated by the deal.II library on 16:51:02 at 2019/11/27
-->
<VTKFile type="UnstructuredGrid" version="0.1" byte_order="LittleEndian">
<UnstructuredGrid>
<Piece NumberOfPoints="9680" NumberOfCells="1210" >
  <Points>
    <DataArray type="Float32" NumberOfComponents="3" format="ascii">
-50 -50 0
-40 -50 0
-50 -40 0
-40 -40 0
-50 -50 10
-40 -50 10
-50 -40 10
-40 -40 10
-40 -50 0
-30 -50 0
-40 -40 0
-30 -40 0
-40 -50 10
-30 -50 10
-40 -40 10
-30 -40 10
-30 -50 0
-20 -50 0
-30 -40 0
-20 -40 0
-30 -50 10
-20 -50 10
-30 -40 10
-20 -40 10
-20 -50 0
-10 -50 0
-20 -40 0
-10 -40 0
-20 -50 10
-10 -50 10
-20 -40 10
-10 -40 10
-10 -50 0
0 -50 0
-10 -40 0
0 -40 0
-10 -50 10
0 -50 10
-10 -40 10
0 -40 10
0 -50 0
10 -50 0
0 -40 0
10 -40 0
0 -50 10
10 -50 10
0 -40 10
10 -40 10
10 -50 0
20 -50 0
10 -40 0
20 -40 0
10 -50 10
20 -50 10
10 -40 10
20 -40 10
20 -50 0
30 -50 0
20 -40 0
30 -40 0
20 -50 10
30 -50 10
20 -40 10
30 -40 10
30 -50 0
40 -50 0
30 -40 0
40 -40 0
30 -50 10
40 -50 10
30 -40 10
40 -40 10
40 -50 0
50 -50 0
40 -40 0
50 -40 0
40 -50 10
50 -50 10
40 -40 10
50 -40 10
-50 -40 0
-40 -40 0
-50 -30 0
-40 -30 0
-50 -40 10
-40 -40 10
-50 -30 10
-40 -30 10
-40 -40 0
-30 -40 0
-40 -30 0
-30 -30 0
-40 -40 10
-30 -40 10
-40 -30 10
-30 -30 10
-30 -40 0
-20 -40 0
-30 -30 0
-20 -30 0
-30 -40 10
-20 -40 10
-30 -30 10
-20 -30 10
-20 -40 0
-10 -40 0
-20 -30 0
-10 -30 0
-20 -40 10
-10 -40 10
-20 -30 10
-10 -30 10
-10 -40 0
0 -40 0
-10 -30 0
0 -30 0
-10 -40 10
0 -40 10
-10 -30 10
0 -30 10
0 -40 0
10 -40 0
0 -30 0
10 -30 0
0 -40 10
10 -40 10
0 -30 10
10 -30 10
10 -40 0
20 -40 0
10 -30 0
20 -30 0
10 -40 10
20 -40 10
10 -30 10
20 -30 10
20 -40 0
30 -40 0
20 -30 0
30 -30 0
20 -40 10
30 -40 10
20 -30 10
30 -30 10
30 -40 0
40 -40 0
30 -30 0
40 -30 0
30 -40 10
40 -40 10
30 -30 10
40 -30 10
40 -40 0
50 -40 0
40 -30 0
50 -30 0
40 -40 10
50 -40 10
40 -30 10
50 -30 10
-50 -30 0
-40 -30 0
-50 -20 0
-40 -20 0
-50 -30 10
-40 -30 10
-50 -20 10
-40 -20 10
-40 -30 0
-30 -30 0
-40 -20 0
-30 -20 0
-40 -30 10
-30 -30 10
-40 -20 10
-30 -20 10
-30 -30 0
-20 -30 0
-30 -20 0
-20 -20 0
-30 -30 10
-20 -30 10
-30 -20 10
-20 -20 10
-20 -30 0
-10 -30 0
-20 -20 0
-10 -20 0
-20 -30 10
-10 -30 10
-20 -20 10
-10 -20 10
-10 -30 0
0 -30 0
-10 -20 0
0 -20 0
-10 -30 10
0 -30 10
-10 -20 10
0 -20 10
0 -30 0
10 -30 0
0 -20 0
10 -20 0
0 -30 10
10 -30 10
0 -20 10
10 -20 10
10 -30 0
20 -30 0
10 -20 0
20 -20 0
10 -30 10
20 -30 10
10 -20 10
20 -20 10
20 -30 0
30 -30 0
20 -20 0
30 -20 0
20 -30 10
30 -30 10
20 -20 10
30 -20 10
30 -30 0
40 -30 0
30 -20 0
40 -20 0
30 -30 10
40 -30 10
30 -20 10
40 -20 10
40 -30 0
50 -30 0
40 -20 0
50 -20 0
40 -30 10
50 -30 10
40 -20 10
50 -20 10
-50 -20 0
-40 -20 0
-50 -10 0
-40 -10 0
-50 -20 10
-40 -20 10
-50 -10 10
-40 -10 10
-40 -20 0
-30 -20 0
-40 -10 0
-30 -10 0
-40 -20 10
-30 -20 10
-40 -10 10
-30 -10 10
-30 -20 0
-20 -20 0
-30 -10 0
-20 -10 0
-30 -20 10
-20 -20 10
-30 -10 10
-20 -10 10
-20 -20 0
-10 -20 0
-20 -10 0
-10 -10 0
-20 -20 10
-10 -20 10
-20 -10 10
-10 -10 10
-10 -20 0
0 -20 0
-10 -10 0
0 -10 0
-10 -20 10
0 -20 10
-10 -10 10
0 -10 10
0 -20 0
10 -20 0
0 -10 0
10 -10 0
0 -20 10
10 -20 10
0 -10 10
10 -10 10
10 -20 0
20 -20 0
10 -10 0
20 -10 0
10 -20 10
20 -20 10
10 -10 10
20 -10 10
20 -20 0
30 -20 0
20 -10 0
30 -10 0
20 -20 10
30 -20 10
20 -10 10
30 -10 10
30 -20 0
40 -20 0
30 -10 0
40 -10 0
30 -20 10
40 -20 10
30 -10 10
40 -10 10
40 -20 0
50 -20 0
40 -10 0
50 -10 0
40 -20 10
50 -20 10
40 -10 10
50 -10 10
-50 -10 0
-40 -10 0
-50 0 0
-40 0 0
-50 -10 10
-40 -10 10
-50 0 10
-40 0 10
-40 -10 0
-30 -10 0
-40 0 0
-30 0 0
-40 -10 10
-30 -10 10
-40 0 10
-30 0 10
-30 -10 0
-20 -10 0
-30 0 0
-20 0 0
-30 -10 10
-20 -10 10
-30 0 10
-20 0 10
-20 -10 0
-10 -10 0
-20 0 0
-10 0 0
-20 -10 10
-10 -10 10
-20 0 10
-10 0 10
-50 0 0
-40 0 0
-50 10 0
-40 10 0
-50 0 10
-40 0 10
-50 10 10
-40 10 10
-40 0 0
-30 0 0
-40 10 0
-30 10 0
-40 0 10
-30 0 10
-40 10 10
-30 10 10
-30 0 0
-20 0 0
-30 10 0
-20 10 0
-30 0 10
-20 0 10
-30 10 10
-20 10 10
-20 0 0
-10 0 0
-20 10 0
-10 10 0
-20 0 10
-10 0 10
-20 10 10
-10 10 10
-50 10 0
-40 10 0
-50 20 0
-40 20 0
-50 10 10
-40 10 10
-50 20 10
-40 20 10
-40 10 0
-30 10 0
-40 20 0
-30 20 0
-40 10 10
-30 10 10
-40 20 10
-30 20 10
-30 10 0
-20 10 0
-30 20 0
-20 20 0
-30 10 10
-20 10 10
-30 20 10
-20 20 10
-20 10 0
-10 10 0
-20 20 0
-10 20 0
-20 10 10
-10 10 10
-20 20 10
-10 20 10
-10 10 0
0 10 0
-10 20 0
0 20 0
-10 10 10
0 10 10
-10 20 10
0 20 10
0 10 0
10 10 0
0 20 0
10 20 0
0 10 10
10 10 10
0 20 10
10 20 10
10 10 0
20 10 0
10 20 0
20 20 0
10 10 10
20 10 10
10 20 10
20 20 10
20 10 0
30 10 0
20 20 0
30 20 0
20 10 10
30 10 10
20 20 10
30 20 10
30 10 0
40 10 0
30 20 0
40 20 0
30 10 10
40 10 10
30 20 10
40 20 10
40 10 0
50 10 0
40 20 0
50 20 0
40 10 10
50 10 10
40 20 10
50 20 10
-50 20 0
-40 20 0
-50 30 0
-40 30 0
-50 20 10
-40 20 10
-50 30 10
-40 30 10
-40 20 0
-30 20 0
-40 30 0
-30 30 0
-40 20 10
-30 20 10
-40 30 10
-30 30 10
-30 20 0
-20 20 0
-30 30 0
-20 30 0
-30 20 10
-20 20 10
-30 30 10
-20 30 10
-20 20 0
-10 20 0
-20 30 0
-10 30 0
-20 20 10
-10 20 10
-20 30 10
-10 30 10
-10 20 0
0 20 0
-10 30 0
0 30 0
-10 20 10
0 20 10
-10 30 10
0 30 10
0 20 0
10 20 0
0 30 0
10 30 0
0 20 10
10 20 10
0 30 10
10 30 10
10 20 0
20 20 0
10 30 0
20 30 0
10 20 10
20 20 10
10 30 10
20 30 10
20 20 0
30 20 0
20 30 0
30 30 0
20 20 10
30 20 10
20 30 10
30 30 10
30 20 0
40 20 0
30 30 0
40 30 0
30 20 10
40 20 10
30 30 10
40 30 10
40 20 0
50 20 0
40 30 0
50 30 0
40 20 10
50 20 10
40 30 10
50 30 10
-50 30 0
-40 30 0
-50 40 0
-40 40 0
-50 30 10
-40 30 10
-50 40 10
-40 40 10
-40 30 0
-30 30 0
-40 40 0
-30 40 0
-40 30 10
-30 30 10
-40 40 10
-30 40 10
-30 30 0
-20 30 0
-30 40 0
-20 40 0
-30 30 10
-20 30 10
-30 40 10
-20 40 10
-20 30 0
-10 30 0
-20 40 0
-10 40 0
-20 30 10
-10 30 10
-20 40 10
-10 40 10
-10 30 0
0 30 0
-10 40 0
0 40 0
-10 30 10
0 30 10
-10 40 10
0 40 10
0 30 0
10 30 0
0 40 0
10 40 0
0 30 10
10 30 10
0 40 10
10 40 10
10 30 0
20 30 0
10 40 0
20 40 0
10 30 10
20 30 10
10 40 10
20 40 10
20 30 0
30 30 0
20 40 0
30 40 0
20 30 10
30 30 10
20 40 10
30 40 10
30 30 0
40 30 0
30 40 0
40 40 0
30 30 10
40 30 10
30 40 10
40 40 10
40 30 0
50 30 0
40 40 0
50 40 0
40 30 10
50 30 10
40 40 10
50 40 10
-50 40 0
-40 40 0
-50 50 0
-40 50 0
-50 40 10
-40 40 10
-50 50 10
-40 50 10
-40 40 0
-30 40 0
-40 50 0
-30 50 0
-40 40 10
-30 40 10
-40 50 10
-30 50 10
-30 40 0
-20 40 0
-30 50 0
-20 50 0
-30 40 10
-20 40 10
-30 50 10
-20 50 10
-20 40 0
-10 40 0
-20 50 0
-10 50 0
-20 40 10
-10 40 10
-20 50 10
-10 50 10
-10 40 0
0 40 0
-10 50 0
0 50 0
-10 40 10
0 40 10
-10 50 10
0 50 10
0 40 0
10 40 0
0 50 0
10 50 0
0 40 10
10 40 10
0 50 10
10 50 10
10 40 0
20 40 0
10 50 0
20 50 0
10 40 10
20 40 10
10 50 10
20 50 10
20 40 0
30 40 0
20 50 0
30 50 0
20 40 10
30 40 10
20 50 10
30 50 10
30 40 0
40 40 0
30 50 0
40 50 0
30 40 10
40 40 10
30 50 10
40 50 10
40 40 0
50 40 0
40 50 0
50 50 0
40 40 10
50 40 10
40 50 10
50 50 10
-50 -50 10
-40 -50 10
-50 -40 10
-40 -40 10
-50 -50 20
-40 -50 20
-50 -40 20
-40 -40 20
-40 -50 10
-30 -50 10
-40 -40 10
-30 -40 10
-40 -50 20
-30 -50 20
-40 -40 20
-30 -40 20
-30 -50 10
-20 -50 10
-30 -40 10
-20 -40 10
-30 -50 20
-20 -50 20
-30 -40 20
-20 -40 20
-20 -50 10
-10 -50 10
-20 -40 10
-10 -40 10
-20 -50 20
-10 -50 20
-20 -40 20
-10 -40 20
-10 -50 10
0 -50 10
-10 -40 10
0 -40 10
-10 -50 20
0 -50 20
-10 -40 20
0 -40 20
0 -50 10
10 -50 10
0 -40 10
10 -40 10
0 -50 20
10 -50 20
0 -40 20
10 -40 20
10 -50 10
20 -50 10
10 -40 10
20 -40 10
10 -50 20
20 -50 20
10 -40 20
20 -40 20
20 -50 10
30 -50 10
20 -40 10
30 -40 10
20 -50 20
30 -50 20
20 -40 20
30 -40 20
30 -50 10
40 -50 10
30 -40 10
40 -40 10
30 -50 20
40 -50 20
30 -40 20
40 -40 20
40 -50 10
50 -50 10
40 -40 10
50 -40 10
40 -50 20
50 -50 20
40 -40 20
50 -40 20
-50 -40 10
-40 -40 10
-50 -30 10
-40 -30 10
-50 -40 20
-40 -40 20
-50 -30 20
-40 -30 20
-40 -40 10
-30 -40 10
-40 -30 10
-30 -30 10
-40 -40 20
-30 -40 20
-40 -30 20
-30 -30 20
-30 -40 10
-20 -40 10
-30 -30 10
-20 -30 10
-30 -40 20
-20 -40 20
-30 -30 20
-20 -30 20
-20 -40 10
-10 -40 10
-20 -30 10
-10 -30 10
-20 -40 20
-10 -40 20
-20 -30 20
-10 -30 20
-10 -40 10
0 -40 10
-10 -30 10
0 -30 10
-10 -40 20
0 -40 20
-10 -30 20
0 -30 20
0 -40 10
10 -40 10
0 -30 10
10 -30 10
0 -40 20
10 -40 20
0 -30 20
10 -30 20
10 -40 10
20 -40 10
10 -30 10
20 -30 10
10 -40 20
20 -40 20
10 -30 20
20 -30 20
20 -40 10
30 -40 10
20 -30 10
30 -30 10
20 -40 20
30 -40 20
20 -30 20
30 -30 20
30 -40 10
40 -40 10
30 -30 10
40 -30 10
30 -40 20
40 -40 20
30 -30 20
40 -30 20
40 -40 10
50 -40 10
40 -30 10
50 -30 10
40 -40 20
50 -40 20
40 -30 20
50 -30 20
-50 -30 10
-40 -30 10
-50 -20 10
-40 -20 10
-50 -30 20
-40 -30 20
-50 -20 20
-40 -20 20
-40 -30 10
-30 -30 10
-40 -20 10
-30 -20 10
-40 -30 20
-30 -30 20
-40 -20 20
-30 -20 20
-30 -30 10
-20 -30 10
-30 -20 10
-20 -20 10
-30 -30 20
-20 -30 20
-30 -20 20
-20 -20 20
-20 -30 10
-10 -30 10
-20 -20 10
-10 -20 10
-20 -30 20
-10 -30 20
-20 -20 20
-10 -20 20
-10 -30 10
0 -30 10
-10 -20 10
0 -20 10
-10 -30 20
0 -30 20
-10 -20 20
0 -20 20
0 -30 10
10 -30 10
0 -20 10
10 -20 10
0 -30 20
10 -30 20
0 -20 20
10 -20 20
10 -30 10
20 -30 10
10 -20 10
20 -20 10
10 -30 20
20 -30 20
10 -20 20
20 -20 20
20 -30 10
30 -30 10
20 -20 10
30 -20 10
20 -30 20
30 -30 20
20 -20 20
30 -20 20
30 -30 10
40 -30 10
30 -20 10
40 -20 10
30 -30 20
40 -30 20
30 -20 20
40 -20 20
40 -30 10
50 -30 10
40 -20 10
50 -20 10
40 -30 20
50 -30 20
40 -20 20
50 -20 20
-50 -20 10
-40 -20 10
-50 -10 10
-40 -10 10
-50 -20 20
-40 -20 20
-50 -10 20
-40 -10 20
-40 -20 10
-30 -20 10
-40 -10 10
-30 -10 10
-40 -20 20
-30 -20 20
-40 -10 20
-30 -10 20
-30 -20 10
-20 -20 10
-30 -10 10
-20 -10 10
-30 -20 20
-20 -20 20
-30 -10 20
-20 -10 20
-20 -20 10
-10 -20 10
-20 -10 10
-10 -10 10
-20 -20 20
-10 -20 20
-20 -10 20
-10 -10 20
-10 -20 10
0 -20 10
-10 -10 10
0 -10 10
-10 -20 20
0 -20 20
-10 -10 20
0 -10 20
0 -20 10
10 -20 10
0 -10 10
10 -10 10
0 -20 20
10 -20 20
0 -10 20
10 -10 20
10 -20 10
20 -20 10
10 -10 10
20 -10 10
10 -20 20
20 -20 20
10 -10 20
[...]
  <PointData Scalars="scalars">
    <DataArray type="Float32" Name="u" format="ascii">
0.155397 0.16994 0.162666 0.179174 0.154688 0.16901 0.161852 0.178086 0.16994 0.186555 0.179174 0.198948 0.16901 0.185326 0.178086 0.197462 0.186555 0.205698 0.198948 0.222646 0.185326 0.204058 0.197462 0.220574 0.205698 0.227425 0.222646 0.251007 0.204058 0.225219 0.220574 0.248061 0.227425 0.251159 0.251007 0.284344 0.225219 0.248228 0.248061 0.280094 0.251159 0.275159 0.284344 0.321289 0.248228 0.271389 0.280094 0.315297 0.275159 0.296272 0.321289 0.357245 0.271389 0.291722 0.315297 0.349252 0.296272 0.310616 0.357245 0.384134 0.291722 0.305542 0.349252 0.374527 0.310616 0.315085 0.384134 0.393218 0.305542 0.309874 0.374527 0.383213 0.315085 0.307713 0.393218 0.381384 0.309874 0.302968 0.383213 0.372205 0.162666 0.179174 0.168791 0.187462 0.161852 0.178086 0.167885 0.186221 0.179174 0.198948 0.187462 0.210402 0.178086 0.197462 0.186221 0.208654 0.198948 0.222646 0.210402 0.239017 0.197462 0.220574 0.208654 0.236477 0.222646 0.251007 0.239017 0.275241 0.220574 0.248061 0.236477 0.271397 0.251007 0.284344 0.275241 0.321461 0.248061 0.280094 0.271397 0.315447 0.284344 0.321289 0.321461 0.37975 0.280094 0.315297 0.315447 0.369851 0.321289 0.357245 0.37975 0.445047 0.315297 0.349252 0.369851 0.430109 0.357245 0.384134 0.445047 0.500126 0.349252 0.374527 0.430109 0.480171 0.384134 0.393218 0.500126 0.522121 0.374527 0.383213 0.480171 0.499555 0.393218 0.381384 0.522121 0.495185 0.383213 0.372205 0.499555 0.476843 0.168791 0.187462 0.173554 0.194064 0.167885 0.186221 0.172573 0.192693 0.187462 0.210402 0.194064 0.219842 0.186221 0.208654 0.192693 0.217857 0.210402 0.239017 0.219842 0.253082 0.208654 0.236477 0.217857 0.250081 0.239017 0.275241 0.253082 0.297207 0.236477 0.271397 0.250081 0.29247 0.275241 0.321461 0.297207 0.358161 0.271397 0.315447 0.29247 0.34996 0.321461 0.37975 0.358161 0.445148 0.315447 0.369851 0.34996 0.430297 0.37975 0.445047 0.445148 0.573614 0.369851 0.430109 0.430297 0.541024 0.445047 0.500126 0.573614 0.71011 0.430109 0.480171 0.541024 0.659355 0.500126 0.522121 0.71011 0.765303 0.480171 0.499555 0.659355 0.71206 0.522121 0.495185 0.765303 0.707767 0.499555 0.476843 0.71206 0.659878 0.173554 0.194064 0.176586 0.198348 0.172573 0.192693 0.175557 0.196888 0.194064 0.219842 0.198348 0.226105 0.192693 0.217857 0.196888 0.22396 0.219842 0.253082 0.226105 0.262837 0.217857 0.250081 0.22396 0.259442 0.253082 0.297207 0.262837 0.313407 0.250081 0.29247 0.259442 0.307645 0.297207 0.358161 0.313407 0.386004 0.29247 0.34996 0.307645 0.376456 0.358161 0.445148 0.386004 0.50239 0.34996 0.430297 0.376456 0.481558 0.445148 0.573614 0.50239 0.704743 0.430297 0.541024 0.481558 0.658308 0.573614 0.71011 0.704743 1.15473 0.541024 0.659355 0.658308 0.953109 0.71011 0.765303 1.15473 1.55081 0.659355 0.71206 0.953109 1.17834 0.765303 0.707767 1.55081 1.20895 0.71206 0.659878 1.17834 0.981471 0.176586 0.198348 0.177628 0.199833 0.175557 0.196888 0.176582 0.198344 0.198348 0.226105 0.199833 0.228326 0.196888 0.22396 0.198344 0.226099 0.226105 0.262837 0.228326 0.266187 0.22396 0.259442 0.226099 0.262827 0.262837 0.313407 0.266187 0.321174 0.259442 0.307645 0.262827 0.313394 0.177628 0.199833 0.176586 0.198348 0.176582 0.198344 0.175557 0.196888 0.199833 0.228326 0.198348 0.226105 0.198344 0.226099 0.196888 0.22396 0.228326 0.266187 0.226105 0.262837 0.226099 0.262827 0.22396 0.259442 0.266187 0.321174 0.262837 0.313407 0.262827 0.313394 0.259442 0.307645 0.176586 0.198348 0.173554 0.194064 0.175557 0.196888 0.172573 0.192693 0.198348 0.226105 0.194064 0.219842 0.196888 0.22396 0.192693 0.217857 0.226105 0.262837 0.219842 0.253082 0.22396 0.259442 0.217857 0.250081 0.262837 0.313407 0.253082 0.297207 0.259442 0.307645 0.250081 0.292471 0.313407 0.386004 0.297207 0.358161 0.307645 0.376456 0.292471 0.34996 0.386004 0.502392 0.358161 0.445148 0.376456 0.481558 0.34996 0.430298 0.502392 0.70474 0.445148 0.573619 0.481558 0.658315 0.430298 0.541025 0.70474 1.15481 0.573619 0.710115 0.658315 0.953083 0.541025 0.65936 1.15481 1.551 0.710115 0.765303 0.953083 1.17825 0.65936 0.712071 1.551 1.20917 0.765303 0.707764 1.17825 0.981364 0.712071 0.659889 0.173554 0.194064 0.168791 0.187462 0.172573 0.192693 0.167885 0.186221 0.194064 0.219842 0.187462 0.210402 0.192693 0.217857 0.186221 0.208654 0.219842 0.253082 0.210402 0.239017 0.217857 0.250081 0.208654 0.236477 0.253082 0.297207 0.239017 0.275241 0.250081 0.292471 0.236477 0.271397 0.297207 0.358161 0.275241 0.321461 0.292471 0.34996 0.271397 0.315447 0.358161 0.445148 0.321461 0.37975 0.34996 0.430298 0.315447 0.369851 0.445148 0.573619 0.37975 0.445048 0.430298 0.541025 0.369851 0.43011 0.573619 0.710115 0.445048 0.500128 0.541025 0.65936 0.43011 0.480172 0.710115 0.765303 0.500128 0.522124 0.65936 0.712071 0.480172 0.499555 0.765303 0.707764 0.522124 0.495188 0.712071 0.659889 0.499555 0.476843 0.168791 0.187462 0.162666 0.179174 0.167885 0.186221 0.161852 0.178086 0.187462 0.210402 0.179174 0.198948 0.186221 0.208654 0.178086 0.197462 0.210402 0.239017 0.198948 0.222646 0.208654 0.236477 0.197462 0.220574 0.239017 0.275241 0.222646 0.251007 0.236477 0.271397 0.220574 0.248062 0.275241 0.321461 0.251007 0.284344 0.271397 0.315447 0.248062 0.280094 0.321461 0.37975 0.284344 0.321289 0.315447 0.369851 0.280094 0.315297 0.37975 0.445048 0.321289 0.357245 0.369851 0.43011 0.315297 0.349252 0.445048 0.500128 0.357245 0.384134 0.43011 0.480172 0.349252 0.374527 0.500128 0.522124 0.384134 0.393218 0.480172 0.499555 0.374527 0.383213 0.522124 0.495188 0.393218 0.381385 0.499555 0.476843 0.383213 0.372205 0.162666 0.179174 0.155397 0.16994 0.161852 0.178086 0.154688 0.16901 0.179174 0.198948 0.16994 0.186555 0.178086 0.197462 0.16901 0.185326 0.198948 0.222646 0.186555 0.205699 0.197462 0.220574 0.185326 0.204058 0.222646 0.251007 0.205699 0.227425 0.220574 0.248062 0.204058 0.225219 0.251007 0.284344 0.227425 0.251159 0.248062 0.280094 0.225219 0.248228 0.284344 0.321289 0.251159 0.275159 0.280094 0.315297 0.248228 0.27139 0.321289 0.357245 0.275159 0.296272 0.315297 0.349252 0.27139 0.291722 0.357245 0.384134 0.296272 0.310617 0.349252 0.374527 0.291722 0.305542 0.384134 0.393218 0.310617 0.315085 0.374527 0.383213 0.305542 0.309874 0.393218 0.381385 0.315085 0.307713 0.383213 0.372205 0.309874 0.302968 0.154688 0.16901 0.161852 0.178086 0.152614 0.166302 0.159477 0.17493 0.16901 0.185326 0.178086 0.197462 0.166302 0.181772 0.17493 0.193186 0.185326 0.204058 0.197462 0.220574 0.181772 0.199345 0.193186 0.214669 0.204058 0.225219 0.220574 0.248061 0.199345 0.218943 0.214669 0.239763 0.225219 0.248228 0.248061 0.280094 0.218943 0.239952 0.239763 0.268337 0.248228 0.271389 0.280094 0.315297 0.239952 0.260837 0.268337 0.29894 0.271389 0.291722 0.315297 0.349252 0.260837 0.27901 0.29894 0.327809 0.291722 0.305542 0.349252 0.374527 0.27901 0.291363 0.327809 0.348921 0.305542 0.309874 0.374527 0.383213 0.291363 0.295337 0.348921 0.356285 0.309874 0.302968 0.383213 0.372205 0.295337 0.289513 0.356285 0.347534 0.161852 0.178086 0.167885 0.186221 0.159477 0.17493 0.165247 0.182632 0.178086 0.197462 0.186221 0.208654 0.17493 0.193186 0.182632 0.203647 0.197462 0.220574 0.208654 0.236477 0.193186 0.214669 0.203647 0.22928 0.220574 0.248061 0.236477 0.271397 0.214669 0.239763 0.22928 0.260706 0.248061 0.280094 0.271397 0.315447 0.239763 0.268337 0.260706 0.299017 0.280094 0.315297 0.315447 0.369851 0.268337 0.29894 0.299017 0.344053 0.315297 0.349252 0.369851 0.430109 0.29894 0.327809 0.344053 0.39151 0.349252 0.374527 0.430109 0.480171 0.327809 0.348921 0.39151 0.429995 0.374527 0.383213 0.480171 0.499555 0.348921 0.356285 0.429995 0.44465 0.383213 0.372205 0.499555 0.476843 0.356285 0.347534 0.44465 0.428921 0.167885 0.186221 0.172573 0.192693 0.165247 0.182632 0.169722 0.188738 0.186221 0.208654 0.192693 0.217857 0.182632 0.203647 0.188738 0.212195 0.208654 0.236477 0.217857 0.250081 0.203647 0.22928 0.212195 0.241652 0.236477 0.271397 0.250081 0.29247 0.22928 0.260706 0.241652 0.279321 0.271397 0.315447 0.29247 0.34996 0.260706 0.299017 0.279321 0.328238 0.315447 0.369851 0.34996 0.430297 0.299017 0.344053 0.328238 0.39171 0.369851 0.430109 0.430297 0.541024 0.344053 0.39151 0.39171 0.468575 0.430109 0.480171 0.541024 0.659355 0.39151 0.429995 0.468575 0.541962 0.480171 0.499555 0.659355 0.71206 0.429995 0.44465 0.541962 0.575425 0.499555 0.476843 0.71206 0.659878 0.44465 0.428921 0.575425 0.543107 0.172573 0.192693 0.175557 0.196888 0.169722 0.188738 0.172566 0.192685 0.192693 0.217857 0.196888 0.22396 0.188738 0.212195 0.192685 0.217839 0.217857 0.250081 0.22396 0.259442 0.212195 0.241652 0.217839 0.250049 0.250081 0.29247 0.259442 0.307645 0.241652 0.279321 0.250049 0.292429 0.29247 0.34996 0.307645 0.376456 0.279321 0.328238 0.292429 0.349918 0.34996 0.430297 0.376456 0.481558 0.328238 0.39171 0.349918 0.430272 0.430297 0.541024 0.481558 0.658308 0.39171 0.468575 0.430272 0.541056 0.541024 0.659355 0.658308 0.953109 0.468575 0.541962 0.541056 0.659508 0.659355 0.71206 0.953109 1.17834 0.541962 0.575425 0.659508 0.712258 0.71206 0.659878 1.17834 0.981471 0.575425 0.543107 0.712258 0.659732 0.175557 0.196888 0.176582 0.198344 0.172566 0.192685 0.173543 0.194052 0.196888 0.22396 0.198344 0.226099 0.192685 0.217839 0.194052 0.219817 0.22396 0.259442 0.226099 0.262827 0.217839 0.250049 0.219817 0.25304 0.259442 0.307645 0.262827 0.313394 0.250049 0.292429 0.25304 0.297152 0.307645 0.376456 0.313394 0.385989 0.292429 0.349918 0.297152 0.358108 0.376456 0.481558 0.385989 0.502391 0.349918 0.430272 0.358108 0.445116 0.481558 0.658308 0.502391 0.704706 0.430272 0.541056 0.445116 0.573689 0.658308 0.953109 0.704706 1.1556 0.541056 0.659508 0.573689 0.710319 0.953109 1.17834 1.1556 1.5532 0.659508 0.712258 0.710319 0.765386 1.17834 0.981471 1.5532 1.20886 0.712258 0.659732 0.765386 0.707495 0.176582 0.198344 0.175557 0.196888 0.173543 0.194052 0.172566 0.192685 0.198344 0.226099 0.196888 0.22396 0.194052 0.219817 0.192685 0.217839 0.226099 0.262827 0.22396 0.259442 0.219817 0.25304 0.217839 0.250049 0.262827 0.313394 0.259442 0.307645 0.25304 0.297152 0.250049 0.292429 0.313394 0.385989 0.307645 0.376456 0.297152 0.358108 0.292429 0.349918 0.385989 0.502391 0.376456 0.481558 0.358108 0.445116 0.349918 0.430273 0.502391 0.704706 0.481558 0.658315 0.445116 0.573689 0.430273 0.541054 0.704706 1.1556 0.658315 0.953083 0.573689 0.710319 0.541054 0.659502 1.1556 1.5532 0.953083 1.17825 0.710319 0.765386 0.659502 0.712249 1.5532 1.20886 1.17825 0.981364 0.765386 0.707495 0.712249 0.659722 0.175557 0.196888 0.172573 0.192693 0.172566 0.192685 0.169722 0.188738 0.196888 0.22396 0.192693 0.217857 0.192685 0.217839 0.188738 0.212195 0.22396 0.259442 0.217857 0.250081 0.217839 0.250049 0.212195 0.241652 0.259442 0.307645 0.250081 0.292471 0.250049 0.292429 0.241652 0.279321 0.307645 0.376456 0.292471 0.34996 0.292429 0.349918 0.279321 0.328238 0.376456 0.481558 0.34996 0.430298 0.349918 0.430273 0.328238 0.39171 0.481558 0.658315 0.430298 0.541025 0.430273 0.541054 0.39171 0.468574 0.658315 0.953083 0.541025 0.65936 0.541054 0.659502 0.468574 0.541957 0.953083 1.17825 0.65936 0.712071 0.659502 0.712249 0.541957 0.575414 1.17825 0.981364 0.712071 0.659889 0.712249 0.659722 0.575414 0.543095 0.172573 0.192693 0.167885 0.186221 0.169722 0.188738 0.165247 0.182632 0.192693 0.217857 0.186221 0.208654 0.188738 0.212195 0.182632 0.203647 0.217857 0.250081 0.208654 0.236477 0.212195 0.241652 0.203647 0.22928 0.250081 0.292471 0.236477 0.271397 0.241652 0.279321 0.22928 0.260706 0.292471 0.34996 0.271397 0.315447 0.279321 0.328238 0.260706 0.299017 0.34996 0.430298 0.315447 0.369851 0.328238 0.39171 0.299017 0.344053 0.430298 0.541025 0.369851 0.43011 0.39171 0.468574 0.344053 0.391509 0.541025 0.65936 0.43011 0.480172 0.468574 0.541957 0.391509 0.429994 0.65936 0.712071 0.480172 0.499555 0.541957 0.575414 0.429994 0.44465 0.712071 0.659889 0.499555 0.476843 0.575414 0.543095 0.44465 0.42892 0.167885 0.186221 0.161852 0.178086 0.165247 0.182632 0.159477 0.17493 0.186221 0.208654 0.178086 0.197462 0.182632 0.203647 0.17493 0.193186 0.208654 0.236477 0.197462 0.220574 0.203647 0.22928 0.193186 0.214669 0.236477 0.271397 0.220574 0.248062 0.22928 0.260706 0.214669 0.239763 0.271397 0.315447 0.248062 0.280094 0.260706 0.299017 0.239763 0.268337 0.315447 0.369851 0.280094 0.315297 0.299017 0.344053 0.268337 0.29894 0.369851 0.43011 0.315297 0.349252 0.344053 0.391509 0.29894 0.327809 0.43011 0.480172 0.349252 0.374527 0.391509 0.429994 0.327809 0.348921 0.480172 0.499555 0.374527 0.383213 0.429994 0.44465 0.348921 0.356285 0.499555 0.476843 0.383213 0.372205 0.44465 0.42892 0.356285 0.347534 0.161852 0.178086 0.154688 0.16901 0.159477 0.17493 0.152614 0.166302 0.178086 0.197462 0.16901 0.185326 0.17493 0.193186 0.166302 0.181772 0.197462 0.220574 0.185326 0.204058 0.193186 0.214669 0.181772 0.199345 0.220574 0.248062 0.204058 0.225219 0.214669 0.239763 0.199345 0.218943 0.248062 0.280094 0.225219 0.248228 0.239763 0.268337 0.218943 0.239952 0.280094 0.315297 0.248228 0.27139 0.268337 0.29894 0.239952 0.260837 0.315297 0.349252 0.27139 0.291722 0.29894 0.327809 0.260837 0.279009 0.349252 0.374527 0.291722 0.305542 0.327809 0.348921 0.279009 0.291362 0.374527 0.383213 0.305542 0.309874 0.348921 0.356285 0.291362 0.295336 0.383213 0.372205 0.309874 0.302968 0.356285 0.347534 0.295336 0.289513 0.152614 0.166302 0.159477 0.17493 0.149323 0.16205 0.155726 0.170005 0.166302 0.181772 0.17493 0.193186 0.16205 0.176253 0.170005 0.186608 0.181772 0.199345 0.193186 0.214669 0.176253 0.192126 0.186608 0.205745 0.199345 0.218943 0.214669 0.239763 0.192126 0.209485 0.205745 0.227512 0.218943 0.239952 0.239763 0.268337 0.209485 0.227693 0.227512 0.251482 0.239952 0.260837 0.268337 0.29894 0.227693 0.245425 0.251482 0.276204 0.260837 0.27901 0.29894 0.327809 0.245425 0.26062 0.276204 0.298723 0.27901 0.291363 0.327809 0.348921 0.26062 0.270879 0.298723 0.314799 0.291363 0.295337 0.348921 0.356285 0.270879 0.274266 0.314799 0.320403 0.295337 0.289513 0.356285 0.347534 0.274266 0.269731 0.320403 0.314112 0.159477 0.17493 0.165247 0.182632 0.155726 0.170005 0.161096 0.177062 0.17493 0.193186 0.182632 0.203647 0.170005 0.186608 0.177062 0.196007 0.193186 0.214669 0.203647 0.22928 0.186608 0.205745 0.196007 0.218541 0.214669 0.239763 0.22928 0.260706 0.205745 0.227512 0.218541 0.245226 0.239763 0.268337 0.260706 0.299017 0.227512 0.251482 0.245226 0.276222 0.268337 0.29894 0.299017 0.344053 0.251482 0.276204 0.276222 0.310384 0.29894 0.327809 0.344053 0.39151 0.276204 0.298723 0.310384 0.343863 0.327809 0.348921 0.39151 0.429995 0.298723 0.314799 0.343863 0.369482 0.348921 0.356285 0.429995 0.44465 0.314799 0.320403 0.369482 0.379118 0.356285 0.347534 0.44465 0.428921 0.320403 0.314112 0.379118 0.36901 0.165247 0.182632 0.169722 0.188738 0.161096 0.177062 0.165248 0.182626 0.182632 0.203647 0.188738 0.212195 0.177062 0.196007 0.182626 0.20362 0.203647 0.22928 0.212195 0.241652 0.196007 0.218541 0.20362 0.229224 0.22928 0.260706 0.241652 0.279321 0.218541 0.245226 0.229224 0.260624 0.260706 0.299017 0.279321 0.328238 0.245226 0.276222 0.260624 0.298925 0.299017 0.344053 0.328238 0.39171 0.276222 0.310384 0.298925 0.343978 0.344053 0.39151 0.39171 0.468575 0.310384 0.343863 0.343978 0.391485 0.39151 0.429995 0.468575 0.541962 0.343863 0.369482 0.391485 0.430043 0.429995 0.44465 0.541962 0.575425 0.369482 0.379118 0.430043 0.444743 0.44465 0.428921 0.575425 0.543107 0.379118 0.36901 0.444743 0.428995 0.169722 0.188738 0.172566 0.192685 0.165248 0.182626 0.167881 0.186208 0.188738 0.212195 0.192685 0.217839 0.182626 0.20362 0.186208 0.20861 0.212195 0.241652 0.217839 0.250049 0.20362 0.229224 0.20861 0.23639 0.241652 0.279321 0.250049 0.292429 0.229224 0.260624 0.23639 0.271274 0.279321 0.328238 0.292429 0.349918 0.260624 0.298925 0.271274 0.315315 0.328238 0.39171 0.349918 0.430272 0.298925 0.343978 0.315315 0.369757 0.39171 0.468575 0.430272 0.541056 0.343978 0.391485 0.369757 0.430111 0.468575 0.541962 0.541056 0.659508 0.391485 0.430043 0.430111 0.48029 0.541962 0.575425 0.659508 0.712258 0.430043 0.444743 0.48029 0.499714 0.575425 0.543107 0.712258 0.659732 0.444743 0.428995 0.499714 0.476923 0.172566 0.192685 0.173543 0.194052 0.167881 0.186208 0.168784 0.187446 0.192685 0.217839 0.194052 0.219817 0.186208 0.20861 0.187446 0.210352 0.217839 0.250049 0.219817 0.25304 0.20861 0.23639 0.210352 0.23892 0.250049 0.292429 0.25304 0.297152 0.23639 0.271274 0.23892 0.275106 0.292429 0.349918 0.297152 0.358108 0.271274 0.315315 0.275106 0.321319 0.349918 0.430272 0.358108 0.445116 0.315315 0.369757 0.321319 0.379656 0.430272 0.541056 0.445116 0.573689 0.369757 0.430111 0.379656 0.445064 0.541056 0.659508 0.573689 0.710319 0.430111 0.48029 0.445064 0.500277 0.659508 0.712258 0.710319 0.765386 0.48029 0.499714 0.500277 0.522327 0.712258 0.659732 0.765386 0.707495 0.499714 0.476923 0.522327 0.49523 0.173543 0.194052 0.172566 0.192685 0.168784 0.187446 0.167881 0.186208 0.194052 0.219817 0.192685 0.217839 0.187446 0.210352 0.186208 0.20861 0.219817 0.25304 0.217839 0.250049 0.210352 0.23892 0.20861 0.23639 0.25304 0.297152 0.250049 0.292429 0.23892 0.275106 0.23639 0.271274 0.297152 0.358108 0.292429 0.349918 0.275106 0.321319 0.271274 0.315315 0.358108 0.445116 0.349918 0.430273 0.321319 0.379656 0.315315 0.369757 0.445116 0.573689 0.430273 0.541054 0.379656 0.445064 0.369757 0.43011 0.573689 0.710319 0.541054 0.659502 0.445064 0.500277 0.43011 0.480288 0.710319 0.765386 0.659502 0.712249 0.500277 0.522327 0.480288 0.499712 0.765386 0.707495 0.712249 0.659722 0.522327 0.49523 0.499712 0.47692 0.172566 0.192685 0.169722 0.188738 0.167881 0.186208 0.165248 0.182626 0.192685 0.217839 0.188738 0.212195 0.186208 0.20861 0.182626 0.20362 0.217839 0.250049 0.212195 0.241652 0.20861 0.23639 0.20362 0.229224 0.250049 0.292429 0.241652 0.279321 0.23639 0.271274 0.229224 0.260624 0.292429 0.349918 0.279321 0.328238 0.271274 0.315315 0.260624 0.298925 0.349918 0.430273 0.328238 0.39171 0.315315 0.369757 0.298925 0.343978 0.430273 0.541054 0.39171 0.468574 0.369757 0.43011 0.343978 0.391483 0.541054 0.659502 0.468574 0.541957 0.43011 0.480288 0.391483 0.430041 0.659502 0.712249 0.541957 0.575414 0.480288 0.499712 0.430041 0.44474 0.712249 0.659722 0.575414 0.543095 0.499712 0.47692 0.44474 0.428992 0.169722 0.188738 0.165247 0.182632 0.165248 0.182626 0.161096 0.177062 0.188738 0.212195 0.182632 0.203647 0.182626 0.20362 0.177062 0.196007 0.212195 0.241652 0.203647 0.22928 0.20362 0.229224 0.196007 0.218541 0.241652 0.279321 0.22928 0.260706 0.229224 0.260624 0.218541 0.245226 0.279321 0.328238 0.260706 0.299017 0.260624 0.298925 0.245226 0.276222 0.328238 0.39171 0.299017 0.344053 0.298925 0.343978 0.276222 0.310384 0.39171 0.468574 0.344053 0.391509 0.343978 0.391483 0.310384 0.343863 0.468574 0.541957 0.391509 0.429994 0.391483 0.430041 0.343863 0.36948 0.541957 0.575414 0.429994 0.44465 0.430041 0.44474 0.36948 0.379116 0.575414 0.543095 0.44465 0.42892 0.44474 0.428992 0.379116 0.369007 0.165247 0.182632 0.159477 0.17493 0.161096 0.177062 0.155726 0.170005 0.182632 0.203647 0.17493 0.193186 0.177062 0.196007 0.170005 0.186608 0.203647 0.22928 0.193186 0.214669 0.196007 0.218541 0.186608 0.205745 0.22928 0.260706 0.214669 0.239763 0.218541 0.245226 0.205745 0.227512 0.260706 0.299017 0.239763 0.268337 0.245226 0.276222 0.227512 0.251482 0.299017 0.344053 0.268337 0.29894 0.276222 0.310384 0.251482 0.276204 0.344053 0.391509 0.29894 0.327809 0.310384 0.343863 0.276204 0.298722 0.391509 0.429994 0.327809 0.348921 0.343863 0.36948 0.298722 0.314798 0.429994 0.44465 0.348921 0.356285 0.36948 0.379116 0.314798 0.320402 0.44465 0.42892 0.356285 0.347534 0.379116 0.369007 0.320402 0.314111 0.159477 0.17493 0.152614 0.166302 0.155726 0.170005 0.149323 0.16205 0.17493 0.193186 0.166302 0.181772 0.170005 0.186608 0.16205 0.176253 0.193186 0.214669 0.181772 0.199345 0.186608 0.2057