<?xml version="1.0" ?> 
<!-- 
# vtk DataFile Version 3.0
#This file was generated by the deal.II library on 16:48:25 at 2019/11/27
-->
<VTKFile type="UnstructuredGrid" version="0.1" byte_order="LittleEndian">
<UnstructuredGrid>
<Piece NumberOfPoints="48040" NumberOfCells="6005" >
  <Points>
    <DataArray type="Float32" NumberOfComponents="3" format="ascii">
-50 -50 0
-40 -50 0
-50 -40 0
-40 -40 0
-50 -50 10
-40 -50 10
-50 -40 10
-40 -40 10
-40 -50 0
-30 -50 0
-40 -40 0
-30 -40 0
-40 -50 10
-30 -50 10
-40 -40 10
-30 -40 10
-30 -50 0
-20 -50 0
-30 -40 0
-20 -40 0
-30 -50 10
-20 -50 10
-30 -40 10
-20 -40 10
-20 -50 0
-10 -50 0
-20 -40 0
-10 -40 0
-20 -50 10
-10 -50 10
-20 -40 10
-10 -40 10
-10 -50 0
0 -50 0
-10 -40 0
0 -40 0
-10 -50 10
0 -50 10
-10 -40 10
0 -40 10
0 -50 0
10 -50 0
0 -40 0
10 -40 0
0 -50 10
10 -50 10
0 -40 10
10 -40 10
10 -50 0
20 -50 0
10 -40 0
20 -40 0
10 -50 10
20 -50 10
10 -40 10
20 -40 10
20 -50 0
30 -50 0
20 -40 0
30 -40 0
20 -50 10
30 -50 10
20 -40 10
30 -40 10
30 -50 0
40 -50 0
30 -40 0
40 -40 0
30 -50 10
40 -50 10
30 -40 10
40 -40 10
40 -50 0
50 -50 0
40 -40 0
50 -40 0
40 -50 10
50 -50 10
40 -40 10
50 -40 10
-50 -40 0
-40 -40 0
-50 -30 0
-40 -30 0
-50 -40 10
-40 -40 10
-50 -30 10
-40 -30 10
-40 -40 0
-30 -40 0
-40 -30 0
-30 -30 0
-40 -40 10
-30 -40 10
-40 -30 10
-30 -30 10
-30 -40 0
-20 -40 0
-30 -30 0
-20 -30 0
-30 -40 10
-20 -40 10
-30 -30 10
-20 -30 10
-20 -40 0
-10 -40 0
-20 -30 0
-10 -30 0
-20 -40 10
-10 -40 10
-20 -30 10
-10 -30 10
20 -40 0
30 -40 0
20 -30 0
30 -30 0
20 -40 10
30 -40 10
20 -30 10
30 -30 10
-50 -30 0
-40 -30 0
-50 -20 0
-40 -20 0
-50 -30 10
-40 -30 10
-50 -20 10
-40 -20 10
-40 -30 0
-30 -30 0
-40 -20 0
-30 -20 0
-40 -30 10
-30 -30 10
-40 -20 10
-30 -20 10
-30 -30 0
-20 -30 0
-30 -20 0
-20 -20 0
-30 -30 10
-20 -30 10
-30 -20 10
-20 -20 10
20 -30 0
30 -30 0
20 -20 0
30 -20 0
20 -30 10
30 -30 10
20 -20 10
30 -20 10
-50 -20 0
-40 -20 0
-50 -10 0
-40 -10 0
-50 -20 10
-40 -20 10
-50 -10 10
-40 -10 10
-40 -20 0
-30 -20 0
-40 -10 0
-30 -10 0
-40 -20 10
-30 -20 10
-40 -10 10
-30 -10 10
-30 -20 0
-20 -20 0
-30 -10 0
-20 -10 0
-30 -20 10
-20 -20 10
-30 -10 10
-20 -10 10
-20 -20 0
-10 -20 0
-20 -10 0
-10 -10 0
-20 -20 10
-10 -20 10
-20 -10 10
-10 -10 10
-50 -10 0
-40 -10 0
-50 0 0
-40 0 0
-50 -10 10
-40 -10 10
-50 0 10
-40 0 10
-40 -10 0
-30 -10 0
-40 0 0
-30 0 0
-40 -10 10
-30 -10 10
-40 0 10
-30 0 10
-30 -10 0
-20 -10 0
-30 0 0
-20 0 0
-30 -10 10
-20 -10 10
-30 0 10
-20 0 10
-50 0 0
-40 0 0
-50 10 0
-40 10 0
-50 0 10
-40 0 10
-50 10 10
-40 10 10
-40 0 0
-30 0 0
-40 10 0
-30 10 0
-40 0 10
-30 0 10
-40 10 10
-30 10 10
-30 0 0
-20 0 0
-30 10 0
-20 10 0
-30 0 10
-20 0 10
-30 10 10
-20 10 10
-50 10 0
-40 10 0
-50 20 0
-40 20 0
-50 10 10
-40 10 10
-50 20 10
-40 20 10
-40 10 0
-30 10 0
-40 20 0
-30 20 0
-40 10 10
-30 10 10
-40 20 10
-30 20 10
-30 10 0
-20 10 0
-30 20 0
-20 20 0
-30 10 10
-20 10 10
-30 20 10
-20 20 10
-20 10 0
-10 10 0
-20 20 0
-10 20 0
-20 10 10
-10 10 10
-20 20 10
-10 20 10
-50 20 0
-40 20 0
-50 30 0
-40 30 0
-50 20 10
-40 20 10
-50 30 10
-40 30 10
-40 20 0
-30 20 0
-40 30 0
-30 30 0
-40 20 10
-30 20 10
-40 30 10
-30 30 10
-30 20 0
-20 20 0
-30 30 0
-20 30 0
-30 20 10
-20 20 10
-30 30 10
-20 30 10
-50 30 0
-40 30 0
-50 40 0
-40 40 0
-50 30 10
-40 30 10
-50 40 10
-40 40 10
-40 30 0
-30 30 0
-40 40 0
-30 40 0
-40 30 10
-30 30 10
-40 40 10
-30 40 10
-30 30 0
-20 30 0
-30 40 0
-20 40 0
-30 30 10
-20 30 10
-30 40 10
-20 40 10
-20 30 0
-10 30 0
-20 40 0
-10 40 0
-20 30 10
-10 30 10
-20 40 10
-10 40 10
20 30 0
30 30 0
20 40 0
30 40 0
20 30 10
30 30 10
20 40 10
30 40 10
-50 40 0
-40 40 0
-50 50 0
-40 50 0
-50 40 10
-40 40 10
-50 50 10
-40 50 10
-40 40 0
-30 40 0
-40 50 0
-30 50 0
-40 40 10
-30 40 10
-40 50 10
-30 50 10
-30 40 0
-20 40 0
-30 50 0
-20 50 0
-30 40 10
-20 40 10
-30 50 10
-20 50 10
-20 40 0
-10 40 0
-20 50 0
-10 50 0
-20 40 10
-10 40 10
-20 50 10
-10 50 10
-10 40 0
0 40 0
-10 50 0
0 50 0
-10 40 10
0 40 10
-10 50 10
0 50 10
0 40 0
10 40 0
0 50 0
10 50 0
0 40 10
10 40 10
0 50 10
10 50 10
10 40 0
20 40 0
10 50 0
20 50 0
10 40 10
20 40 10
10 50 10
20 50 10
20 40 0
30 40 0
20 50 0
30 50 0
20 40 10
30 40 10
20 50 10
30 50 10
30 40 0
40 40 0
30 50 0
40 50 0
30 40 10
40 40 10
30 50 10
40 50 10
40 40 0
50 40 0
40 50 0
50 50 0
40 40 10
50 40 10
40 50 10
50 50 10
-50 -50 10
-40 -50 10
-50 -40 10
-40 -40 10
-50 -50 20
-40 -50 20
-50 -40 20
-40 -40 20
-40 -50 10
-30 -50 10
-40 -40 10
-30 -40 10
-40 -50 20
-30 -50 20
-40 -40 20
-30 -40 20
-30 -50 10
-20 -50 10
-30 -40 10
-20 -40 10
-30 -50 20
-20 -50 20
-30 -40 20
-20 -40 20
-20 -50 10
-10 -50 10
-20 -40 10
-10 -40 10
-20 -50 20
-10 -50 20
-20 -40 20
-10 -40 20
-10 -50 10
0 -50 10
-10 -40 10
0 -40 10
-10 -50 20
0 -50 20
-10 -40 20
0 -40 20
0 -50 10
10 -50 10
0 -40 10
10 -40 10
0 -50 20
10 -50 20
0 -40 20
10 -40 20
10 -50 10
20 -50 10
10 -40 10
20 -40 10
10 -50 20
20 -50 20
10 -40 20
20 -40 20
20 -50 10
30 -50 10
20 -40 10
30 -40 10
20 -50 20
30 -50 20
20 -40 20
30 -40 20
30 -50 10
40 -50 10
30 -40 10
40 -40 10
30 -50 20
40 -50 20
30 -40 20
40 -40 20
-50 -40 10
-40 -40 10
-50 -30 10
-40 -30 10
-50 -40 20
-40 -40 20
-50 -30 20
-40 -30 20
-40 -40 10
-30 -40 10
-40 -30 10
-30 -30 10
-40 -40 20
-30 -40 20
-40 -30 20
-30 -30 20
-30 -40 10
-20 -40 10
-30 -30 10
-20 -30 10
-30 -40 20
-20 -40 20
-30 -30 20
-20 -30 20
-20 -40 10
-10 -40 10
-20 -30 10
-10 -30 10
-20 -40 20
-10 -40 20
-20 -30 20
-10 -30 20
-10 -40 10
0 -40 10
-10 -30 10
0 -30 10
-10 -40 20
0 -40 20
-10 -30 20
0 -30 20
20 -40 10
30 -40 10
20 -30 10
30 -30 10
20 -40 20
30 -40 20
20 -30 20
30 -30 20
-50 -30 10
-40 -30 10
-50 -20 10
-40 -20 10
-50 -30 20
-40 -30 20
-50 -20 20
-40 -20 20
-40 -30 10
-30 -30 10
-40 -20 10
-30 -20 10
-40 -30 20
-30 -30 20
-40 -20 20
-30 -20 20
-30 -30 10
-20 -30 10
-30 -20 10
-20 -20 10
-30 -30 20
-20 -30 20
-30 -20 20
-20 -20 20
-50 -20 10
-40 -20 10
-50 -10 10
-40 -10 10
-50 -20 20
-40 -20 20
-50 -10 20
-40 -10 20
-40 -20 10
-30 -20 10
-40 -10 10
-30 -10 10
-40 -20 20
-30 -20 20
-40 -10 20
-30 -10 20
-30 -20 10
-20 -20 10
-30 -10 10
-20 -10 10
-30 -20 20
-20 -20 20
-30 -10 20
-20 -10 20
-50 -10 10
-40 -10 10
-50 0 10
-40 0 10
-50 -10 20
-40 -10 20
-50 0 20
-40 0 20
-40 -10 10
-30 -10 10
-40 0 10
-30 0 10
-40 -10 20
-30 -10 20
-40 0 20
-30 0 20
-30 -10 10
-20 -10 10
-30 0 10
-20 0 10
-30 -10 20
-20 -10 20
-30 0 20
-20 0 20
-20 -10 10
-10 -10 10
-20 0 10
-10 0 10
-20 -10 20
-10 -10 20
-20 0 20
-10 0 20
-50 0 10
-40 0 10
-50 10 10
-40 10 10
-50 0 20
-40 0 20
-50 10 20
-40 10 20
-40 0 10
-30 0 10
-40 10 10
-30 10 10
-40 0 20
-30 0 20
-40 10 20
-30 10 20
-30 0 10
-20 0 10
-30 10 10
-20 10 10
-30 0 20
-20 0 20
-30 10 20
-20 10 20
-20 0 10
-10 0 10
-20 10 10
-10 10 10
-20 0 20
-10 0 20
-20 10 20
-10 10 20
-50 10 10
-40 10 10
-50 20 10
-40 20 10
-50 10 20
-40 10 20
-50 20 20
-40 20 20
-40 10 10
-30 10 10
-40 20 10
-30 20 10
-40 10 20
-30 10 20
-40 20 20
-30 20 20
-30 10 10
-20 10 10
-30 20 10
-20 20 10
-30 10 20
-20 10 20
-30 20 20
-20 20 20
-50 20 10
-40 20 10
-50 30 10
-40 30 10
-50 20 20
-40 20 20
-50 30 20
-40 30 20
-40 20 10
-30 20 10
-40 30 10
-30 30 10
-40 20 20
-30 20 20
-40 30 20
-30 30 20
-30 20 10
-20 20 10
-30 30 10
-20 30 10
-30 20 20
-20 20 20
-30 30 20
-20 30 20
-50 30 10
-40 30 10
-50 40 10
-40 40 10
-50 30 20
-40 30 20
-50 40 20
-40 40 20
-40 30 10
-30 30 10
-40 40 10
-30 40 10
-40 30 20
-30 30 20
-40 40 20
-30 40 20
-30 30 10
-20 30 10
-30 40 10
-20 40 10
-30 30 20
-20 30 20
-30 40 20
-20 40 20
-20 30 10
-10 30 10
-20 40 10
-10 40 10
-20 30 20
-10 30 20
-20 40 20
-10 40 20
-10 30 10
0 30 10
-10 40 10
0 40 10
-10 30 20
0 30 20
-10 40 20
0 40 20
20 30 10
30 30 10
20 40 10
30 40 10
20 30 20
30 30 20
20 40 20
30 40 20
-50 40 10
-40 40 10
-50 50 10
-40 50 10
-50 40 20
-40 40 20
-50 50 20
-40 50 20
-40 40 10
-30 40 10
-40 50 10
-30 50 10
-40 40 20
-30 40 20
-40 50 20
-30 50 20
-30 40 10
-20 40 10
-30 50 10
-20 50 10
-30 40 20
-20 40 20
-30 50 20
-20 50 20
-20 40 10
-10 40 10
-20 50 10
-10 50 10
-20 40 20
-10 40 20
-20 50 20
-10 50 20
-10 40 10
0 40 10
-10 50 10
0 50 10
-10 40 20
0 40 20
-10 50 20
0 50 20
10 40 10
20 40 10
10 50 10
20 50 10
10 40 20
20 40 20
10 50 20
20 50 20
20 40 10
30 40 10
20 50 10
30 50 10
20 40 20
30 40 20
20 50 20
30 50 20
30 40 10
40 40 10
30 50 10
40 50 10
30 40 20
40 40 20
30 50 20
40 50 20
-50 -50 20
-40 -50 20
-50 -40 20
-40 -40 20
-50 -50 30
-40 -50 30
-50 -40 30
-40 -40 30
-40 -50 20
-30 -50 20
-40 -40 20
-30 -40 20
-40 -50 30
-30 -50 30
-40 -40 30
-30 -40 30
-30 -50 20
-20 -50 20
-30 -40 20
-20 -40 20
-30 -50 30
-20 -50 30
-30 -40 30
-20 -40 30
-20 -50 20
-10 -50 20
-20 -40 20
-10 -40 20
-20 -50 30
-10 -50 30
-20 -40 30
-10 -40 30
-10 -50 20
0 -50 20
-10 -40 20
0 -40 20
-10 -50 30
0 -50 30
-10 -40 30
0 -40 30
0 -50 20
10 -50 20
0 -40 20
10 -40 20
0 -50 30
10 -50 30
0 -40 30
10 -40 30
20 -50 20
30 -50 20
20 -40 20
30 -40 20
20 -50 30
30 -50 30
20 -40 30
30 -40 30
40 -50 20
50 -50 20
40 -40 20
50 -40 20
40 -50 30
50 -50 30
40 -40 30
50 -40 30
-50 -40 20
-40 -40 20
-50 -30 20
-40 -30 20
-50 -40 30
-40 -40 30
-50 -30 30
-40 -30 30
-40 -40 20
-30 -40 20
-40 -30 20
-30 -30 20
-40 -40 30
-30 -40 30
-40 -30 30
-30 -30 30
-30 -40 20
-20 -40 20
-30 -30 20
-20 -30 20
-30 -40 30
-20 -40 30
-30 -30 30
-20 -30 30
-20 -40 20
-10 -40 20
-20 -30 20
-10 -30 20
-20 -40 30
-10 -40 30
-20 -30 30
-10 -30 30
-10 -40 20
0 -40 20
-10 -30 20
0 -30 20
-10 -40 30
0 -40 30
-10 -30 30
0 -30 30
0 -40 20
10 -40 20
0 -30 20
10 -30 20
0 -40 30
10 -40 30
0 -30 30
10 -30 30
20 -40 20
30 -40 20
20 -30 20
30 -30 20
20 -40 30
30 -40 30
20 -30 30
30 -30 30
40 -40 20
50 -40 20
40 -30 20
50 -30 20
40 -40 30
50 -40 30
40 -30 30
50 -30 30
-50 -30 20
-40 -30 20
-50 -20 20
-40 -20 20
-50 -30 30
-40 -30 30
-50 -20 30
-40 -20 30
-40 -30 20
-30 -30 20
-40 -20 20
-30 -20 20
-40 -30 30
-30 -30 30
-40 -20 30
-30 -20 30
-30 -30 20
-20 -30 20
-30 -20 20
-20 -20 20
-30 -30 30
-20 -30 30
-30 -20 30
-20 -20 30
-20 -30 20
-10 -30 20
-20 -20 20
-10 -20 20
-20 -30 30
-10 -30 30
-20 -20 30
-10 -20 30
-10 -30 20
0 -30 20
-10 -20 20
0 -20 20
-10 -30 30
0 -30 30
[...]
  <PointData Scalars="scalars">
    <DataArray type="Float32" Name="u" format="ascii">
0.176158 0.194154 0.18718 0.208519 0.175114 0.192748 0.185922 0.206785 0.194154 0.21438 0.208519 0.234215 0.192748 0.212491 0.206785 0.231753 0.21438 0.236974 0.234215 0.264676 0.212491 0.234435 0.231753 0.261135 0.236974 0.261121 0.264676 0.299775 0.234435 0.257708 0.261135 0.294634 0.261121 0.284163 0.299775 0.338246 0.257708 0.27993 0.294634 0.330171 0.284163 0.305116 0.338246 0.375157 0.27993 0.299635 0.330171 0.365478 0.305116 0.316703 0.375157 0.394635 0.299635 0.310521 0.365478 0.383136 0.316703 0.316586 0.394635 0.394444 0.310521 0.310301 0.383136 0.383343 0.316586 0.304482 0.394444 0.375287 0.310301 0.296692 0.383343 0.363951 0.304482 0.28271 0.375287 0.339259 0.296692 0.278561 0.363951 0.3304 0.18718 0.208519 0.196879 0.222202 0.185922 0.206785 0.195422 0.220095 0.208519 0.234215 0.222202 0.253952 0.206785 0.231753 0.220095 0.250874 0.234215 0.264676 0.253952 0.294569 0.231753 0.261135 0.250874 0.289688 0.264676 0.299775 0.294569 0.345746 0.261135 0.294634 0.289688 0.337519 0.394635 0.394444 0.523254 0.523259 0.383136 0.383343 0.496566 0.496509 0.196879 0.222202 0.204766 0.233759 0.195422 0.220095 0.203116 0.231338 0.222202 0.253952 0.233759 0.271736 0.220095 0.250874 0.231338 0.267706 0.253952 0.294569 0.271736 0.32209 0.250874 0.289688 0.267706 0.316438 0.523254 0.523259 0.770463 0.770679 0.496566 0.496509 0.692665 0.692853 0.204766 0.233759 0.210093 0.24174 0.203116 0.231338 0.208261 0.238926 0.233759 0.271736 0.24174 0.284442 0.231338 0.267706 0.238926 0.280537 0.271736 0.32209 0.284442 0.344503 0.267706 0.316438 0.280537 0.337082 0.32209 0.396474 0.344503 0.437925 0.316438 0.383287 0.337082 0.42215 0.210093 0.24174 0.211799 0.245658 0.208261 0.238926 0.210087 0.2418 0.24174 0.284442 0.245658 0.289081 0.238926 0.280537 0.2418 0.284266 0.284442 0.344503 0.289081 0.357337 0.280537 0.337082 0.284266 0.344527 0.211799 0.245658 0.210092 0.24174 0.210087 0.2418 0.208261 0.238925 0.245658 0.289081 0.24174 0.284441 0.2418 0.284266 0.238925 0.280536 0.289081 0.357337 0.284441 0.344503 0.284266 0.344527 0.280536 0.337082 0.210092 0.24174 0.204765 0.233758 0.208261 0.238925 0.203116 0.231337 0.24174 0.284441 0.233758 0.271734 0.238925 0.280536 0.231337 0.267704 0.284441 0.344503 0.271734 0.322085 0.280536 0.337082 0.267704 0.316433 0.344503 0.437969 0.322085 0.396462 0.337082 0.422166 0.316433 0.383271 0.204765 0.233758 0.196878 0.222201 0.203116 0.231337 0.195421 0.220094 0.233758 0.271734 0.222201 0.253949 0.231337 0.267704 0.220094 0.250872 0.271734 0.322085 0.253949 0.294561 0.267704 0.316433 0.250872 0.289683 0.196878 0.222201 0.187179 0.208518 0.195421 0.220094 0.185921 0.206784 0.222201 0.253949 0.208518 0.234213 0.220094 0.250872 0.206784 0.231752 0.253949 0.294561 0.234213 0.264676 0.250872 0.289683 0.231752 0.261131 0.294561 0.345715 0.264676 0.29976 0.289683 0.337486 0.261131 0.294658 0.522389 0.522436 0.394551 0.394539 0.496381 0.496419 0.38327 0.38326 0.187179 0.208518 0.176157 0.194154 0.185921 0.206784 0.175113 0.192747 0.208518 0.234213 0.194154 0.21438 0.206784 0.231752 0.192747 0.21249 0.234213 0.264676 0.21438 0.236973 0.231752 0.261131 0.21249 0.234441 0.264676 0.29976 0.236973 0.261161 0.261131 0.294658 0.234441 0.257698 0.29976 0.338273 0.261161 0.284112 0.294658 0.33001 0.257698 0.280359 0.338273 0.375552 0.284112 0.30471 0.33001 0.364073 0.280359 0.296716 0.375552 0.394551 0.30471 0.316619 0.364073 0.38327 0.296716 0.310284 0.394551 0.394539 0.316619 0.316567 0.38327 0.38326 0.310284 0.310249 0.394539 0.375233 0.316567 0.304452 0.38326 0.363912 0.310249 0.29666 0.375233 0.339234 0.304452 0.282681 0.363912 0.330361 0.29666 0.27853 0.175114 0.192748 0.185922 0.206785 0.172082 0.188701 0.182293 0.201817 0.192748 0.212491 0.206785 0.231753 0.188701 0.207102 0.201817 0.224804 0.212491 0.234435 0.231753 0.261135 0.207102 0.227261 0.224804 0.251321 0.234435 0.257708 0.261135 0.294634 0.227261 0.248259 0.251321 0.280758 0.257708 0.27993 0.294634 0.330171 0.248259 0.268174 0.280758 0.310938 0.27993 0.299635 0.330171 0.365478 0.268174 0.28385 0.310938 0.337554 0.299635 0.310521 0.365478 0.383136 0.28385 0.292714 0.337554 0.353132 0.310521 0.310301 0.383136 0.383343 0.292714 0.29265 0.353132 0.353123 0.310301 0.296692 0.383343 0.363951 0.29265 0.284164 0.353123 0.337412 0.185922 0.206785 0.195422 0.220095 0.182293 0.201817 0.191223 0.214137 0.206785 0.231753 0.220095 0.250874 0.201817 0.224804 0.214137 0.242181 0.231753 0.261135 0.250874 0.289688 0.224804 0.251321 0.242181 0.276276 0.261135 0.294634 0.289688 0.337519 0.251321 0.280758 0.276276 0.317121 0.294634 0.330171 0.337519 0.394252 0.280758 0.310938 0.317121 0.363165 0.383136 0.383343 0.496566 0.496509 0.353132 0.353123 0.435654 0.435663 0.195422 0.220095 0.203116 0.231338 0.191223 0.214137 0.198421 0.224405 0.220095 0.250874 0.231338 0.267706 0.214137 0.242181 0.224405 0.257167 0.250874 0.289688 0.267706 0.316438 0.242181 0.276276 0.257167 0.299783 0.203116 0.231338 0.208261 0.238926 0.198421 0.224405 0.203118 0.231391 0.231338 0.267706 0.238926 0.280537 0.224405 0.257167 0.231391 0.267632 0.267706 0.316438 0.280537 0.337082 0.257167 0.299783 0.267632 0.316345 0.208261 0.238926 0.210087 0.2418 0.203118 0.231391 0.204791 0.233739 0.238926 0.280537 0.2418 0.284266 0.231391 0.267632 0.233739 0.272574 0.280537 0.337082 0.284266 0.344527 0.267632 0.316345 0.272574 0.323127 0.337082 0.42215 0.344527 0.438015 0.316345 0.383327 0.323127 0.396408 0.210087 0.2418 0.208261 0.238925 0.204791 0.233739 0.203118 0.231391 0.2418 0.284266 0.238925 0.280536 0.233739 0.272574 0.231391 0.267631 0.284266 0.344527 0.280536 0.337082 0.272574 0.323127 0.267631 0.316343 0.344527 0.438015 0.337082 0.422166 0.323127 0.396408 0.316343 0.383319 0.208261 0.238925 0.203116 0.231337 0.203118 0.231391 0.19842 0.224403 0.238925 0.280536 0.231337 0.267704 0.231391 0.267631 0.224403 0.257165 0.280536 0.337082 0.267704 0.316433 0.267631 0.316343 0.257165 0.299777 0.203116 0.231337 0.195421 0.220094 0.19842 0.224403 0.191222 0.214136 0.231337 0.267704 0.220094 0.250872 0.224403 0.257165 0.214136 0.242179 0.267704 0.316433 0.250872 0.289683 0.257165 0.299777 0.242179 0.276273 0.195421 0.220094 0.185921 0.206784 0.191222 0.214136 0.182292 0.201816 0.220094 0.250872 0.206784 0.231752 0.214136 0.242179 0.201816 0.224803 0.250872 0.289683 0.231752 0.261131 0.242179 0.276273 0.224803 0.251321 0.289683 0.337486 0.261131 0.294658 0.276273 0.317102 0.251321 0.280778 0.337486 0.394195 0.294658 0.33001 0.317102 0.363156 0.280778 0.310878 0.496381 0.496419 0.38327 0.38326 0.434758 0.434791 0.353174 0.353159 0.185921 0.206784 0.175113 0.192747 0.182292 0.201816 0.172081 0.1887 0.206784 0.231752 0.192747 0.21249 0.201816 0.224803 0.1887 0.207102 0.231752 0.261131 0.21249 0.234441 0.224803 0.251321 0.207102 0.227265 0.261131 0.294658 0.234441 0.257698 0.251321 0.280778 0.227265 0.248269 0.294658 0.33001 0.257698 0.280359 0.280778 0.310878 0.248269 0.268496 0.364073 0.38327 0.296716 0.310284 0.337363 0.353174 0.284301 0.292618 0.38327 0.38326 0.310284 0.310249 0.353174 0.353159 0.292618 0.292595 0.38326 0.363912 0.310249 0.29666 0.353159 0.337348 0.292595 0.284139 0.172082 0.188701 0.182293 0.201817 0.167344 0.18247 0.176672 0.19425 0.188701 0.207102 0.201817 0.224804 0.18247 0.198936 0.19425 0.214473 0.207102 0.227261 0.224804 0.251321 0.198936 0.216604 0.214473 0.237112 0.227261 0.248259 0.251321 0.280758 0.216604 0.234587 0.237112 0.261373 0.248259 0.268174 0.280758 0.310938 0.234587 0.251281 0.261373 0.285259 0.268174 0.28385 0.310938 0.337554 0.251281 0.264747 0.285259 0.305104 0.292714 0.29265 0.353132 0.353123 0.272112 0.272111 0.316876 0.316869 0.284164 0.267632 0.337412 0.310798 0.264625 0.250255 0.305061 0.285211 0.182293 0.201817 0.191223 0.214137 0.176672 0.19425 0.184771 0.205179 0.201817 0.224804 0.214137 0.242181 0.19425 0.214473 0.205179 0.229397 0.224804 0.251321 0.242181 0.276276 0.214473 0.237112 0.229397 0.257789 0.251321 0.280758 0.276276 0.317121 0.237112 0.261373 0.257789 0.28995 0.280758 0.310938 0.317121 0.363165 0.261373 0.285259 0.28995 0.32364 0.310938 0.337554 0.363165 0.406694 0.285259 0.305104 0.32364 0.354112 0.353132 0.353123 0.435654 0.435663 0.316876 0.316869 0.372914 0.372903 0.337412 0.310798 0.406813 0.363824 0.305061 0.285211 0.35415 0.324192 0.191223 0.214137 0.198421 0.224405 0.184771 0.205179 0.191242 0.214144 0.214137 0.242181 0.224405 0.257167 0.205179 0.229397 0.214144 0.242165 0.242181 0.276276 0.257167 0.299783 0.229397 0.257789 0.242165 0.27624 0.276276 0.317121 0.299783 0.352869 0.257789 0.28995 0.27624 0.317068 0.317121 0.363165 0.352869 0.420742 0.28995 0.32364 0.317068 0.363124 0.198421 0.224405 0.203118 0.231391 0.191242 0.214144 0.19545 0.220127 0.224405 0.257167 0.231391 0.267632 0.214144 0.242165 0.220127 0.25081 0.257167 0.299783 0.267632 0.316345 0.242165 0.27624 0.25081 0.289598 0.203118 0.231391 0.204791 0.233739 0.19545 0.220127 0.196901 0.222266 0.231391 0.267632 0.233739 0.272574 0.220127 0.25081 0.222266 0.253917 0.267632 0.316345 0.272574 0.323127 0.25081 0.289598 0.253917 0.294496 0.204791 0.233739 0.203118 0.231391 0.196901 0.222266 0.195449 0.220127 0.233739 0.272574 0.231391 0.267631 0.222266 0.253917 0.220127 0.250809 0.272574 0.323127 0.267631 0.316343 0.253917 0.294496 0.250809 0.289596 0.203118 0.231391 0.19842 0.224403 0.195449 0.220127 0.191242 0.214143 0.231391 0.267631 0.224403 0.257165 0.220127 0.250809 0.214143 0.242164 0.267631 0.316343 0.257165 0.299777 0.250809 0.289596 0.242164 0.276237 0.19842 0.224403 0.191222 0.214136 0.191242 0.214143 0.184771 0.205178 0.224403 0.257165 0.214136 0.242179 0.214143 0.242164 0.205178 0.229395 0.257165 0.299777 0.242179 0.276273 0.242164 0.276237 0.229395 0.257786 0.299777 0.352856 0.276273 0.317102 0.276237 0.317059 0.257786 0.289946 0.352856 0.420708 0.317102 0.363156 0.317059 0.363114 0.289946 0.323623 0.550107 0.550169 0.434758 0.434791 0.434722 0.434767 0.372886 0.372903 0.191222 0.214136 0.182292 0.201816 0.184771 0.205178 0.176672 0.194249 0.214136 0.242179 0.201816 0.224803 0.205178 0.229395 0.194249 0.214472 0.242179 0.276273 0.224803 0.251321 0.229395 0.257786 0.214472 0.237114 0.276273 0.317102 0.251321 0.280778 0.257786 0.289946 0.237114 0.261378 0.317102 0.363156 0.280778 0.310878 0.289946 0.323623 0.261378 0.285279 0.363156 0.406664 0.310878 0.337363 0.323623 0.354107 0.285279 0.305117 0.434758 0.434791 0.353174 0.353159 0.372886 0.372903 0.316823 0.316809 0.406789 0.363796 0.337348 0.31077 0.354183 0.324161 0.305024 0.285188 0.182292 0.201816 0.172081 0.1887 0.176672 0.194249 0.167343 0.18247 0.201816 0.224803 0.1887 0.207102 0.194249 0.214472 0.18247 0.198937 0.224803 0.251321 0.207102 0.227265 0.214472 0.237114 0.198937 0.216606 0.251321 0.280778 0.227265 0.248269 0.237114 0.261378 0.216606 0.234607 0.280778 0.310878 0.248269 0.268496 0.261378 0.285279 0.234607 0.251288 0.310878 0.337363 0.268496 0.284301 0.285279 0.305117 0.251288 0.264726 0.353174 0.353159 0.292618 0.292595 0.316823 0.316809 0.272119 0.272086 0.337348 0.31077 0.284139 0.267597 0.305024 0.285188 0.264597 0.250228 0.167344 0.18247 0.176672 0.19425 0.161294 0.174669 0.169578 0.18492 0.18247 0.198936 0.19425 0.214473 0.174669 0.188932 0.18492 0.20209 0.198936 0.216604 0.214473 0.237112 0.188932 0.203861 0.20209 0.22068 0.216604 0.234587 0.237112 0.261373 0.203861 0.218651 0.22068 0.239826 0.234587 0.251281 0.261373 0.285259 0.218651 0.232049 0.239826 0.25786 0.251281 0.264747 0.285259 0.305104 0.232049 0.242379 0.25786 0.27238 0.264747 0.272112 0.305104 0.316876 0.242379 0.248083 0.27238 0.280564 0.272112 0.272111 0.316876 0.316869 0.248083 0.24805 0.280564 0.280532 0.272111 0.264625 0.316869 0.305061 0.24805 0.24224 0.280532 0.272266 0.264625 0.250255 0.305061 0.285211 0.24224 0.231324 0.272266 0.25774 0.176672 0.19425 0.184771 0.205179 0.169578 0.18492 0.176714 0.194286 0.19425 0.214473 0.205179 0.229397 0.18492 0.20209 0.194286 0.214446 0.214473 0.237112 0.229397 0.257789 0.20209 0.22068 0.214446 0.237058 0.237112 0.261373 0.257789 0.28995 0.22068 0.239826 0.237058 0.261304 0.261373 0.285259 0.28995 0.32364 0.239826 0.25786 0.261304 0.285199 0.285259 0.305104 0.32364 0.354112 0.25786 0.27238 0.285199 0.305037 0.305104 0.316876 0.354112 0.372914 0.27238 0.280564 0.305037 0.31669 0.316876 0.316869 0.372914 0.372903 0.280564 0.280532 0.31669 0.316838 0.316869 0.305061 0.372903 0.35415 0.280532 0.272266 0.316838 0.305145 0.305061 0.285211 0.35415 0.324192 0.272266 0.25774 0.305145 0.285227 0.184771 0.205179 0.191242 0.214144 0.176714 0.194286 0.182356 0.201869 0.205179 0.229397 0.214144 0.242165 0.194286 0.214446 0.201869 0.224765 0.229397 0.257789 0.242165 0.27624 0.214446 0.237058 0.224765 0.251235 0.257789 0.28995 0.27624 0.317068 0.237058 0.261304 0.251235 0.280662 0.28995 0.32364 0.317068 0.363124 0.261304 0.285199 0.280662 0.310737 0.32364 0.354112 0.363124 0.406612 0.285199 0.305037 0.310737 0.33724 0.372914 0.372903 0.43563 0.435498 0.31669 0.316838 0.352809 0.353983 0.35415 0.324192 0.406744 0.363791 0.305145 0.285227 0.337461 0.310712 0.191242 0.214144 0.19545 0.220127 0.182356 0.201869 0.185997 0.206847 0.214144 0.242165 0.220127 0.25081 0.201869 0.224765 0.206847 0.231714 0.242165 0.27624 0.25081 0.289598 0.224765 0.251235 0.231714 0.261034 0.27624 0.317068 0.289598 0.33746 0.251235 0.280662 0.261034 0.294534 0.317068 0.363124 0.33746 0.394162 0.280662 0.310737 0.294534 0.32987 0.43563 0.435498 0.496081 0.496202 0.352809 0.353983 0.383336 0.383135 0.19545 0.220127 0.196901 0.222266 0.185997 0.206847 0.18726 0.208583 0.220127 0.25081 0.222266 0.253917 0.206847 0.231714 0.208583 0.23417 0.25081 0.289598 0.253917 0.294496 0.231714 0.261034 0.23417 0.264572 0.289598 0.33746 0.294496 0.345722 0.261034 0.294534 0.264572 0.299637 0.496081 0.496202 0.522332 0.522327 0.383336 0.383135 0.394455 0.39451 0.196901 0.222266 0.195449 0.220127 0.18726 0.208583 0.185997 0.206846 0.222266 0.253917 0.220127 0.250809 0.208583 0.23417 0.206846 0.231713 0.253917 0.294496 0.250809 0.289596 0.23417 0.264572 0.231713 0.261032 0.294496 0.345722 0.289596 0.337455 0.264572 0.299637 0.261032 0.294531 0.522332 0.522327 0.49633 0.496374 0.394455 0.39451 0.383241 0.383253 0.195449 0.220127 0.191242 0.214143 0.185997 0.206846 0.182356 0.201869 0.220127 0.250809 0.214143 0.242164 0.206846 0.231713 0.201869 0.224764 0.250809 0.289596 0.242164 0.276237 0.231713 0.261032 0.224764 0.251232 0.289596 0.337455 0.276237 0.317059 0.261032 0.294531 0.251232 0.280658 0.337455 0.394154 0.317059 0.363114 0.294531 0.329865 0.280658 0.310731 0.49633 0.496374 0.434722 0.434767 0.383241 0.383253 0.35284 0.352855 0.191242 0.214143 0.184771 0.205178 0.182356 0.201869 0.176713 0.194285 0.214143 0.242164 0.205178 0.229395 0.201869 0.224764 0.194285 0.214445 0.242164 0.276237 0.229395 0.257786 0.224764 0.251232 0.214445 0.237057 0.276237 0.317059 0.257786 0.289946 0.251232 0.280658 0.237057 0.261301 0.317059 0.363114 0.289946 0.323623 0.280658 0.310731 0.261301 0.285196 0.363114 0.40661 0.323623 0.354107 0.310731 0.337212 0.285196 0.305028 0.434722 0.434767 0.372886 0.372903 0.35284 0.352855 0.316676 0.316677 0.406754 0.363765 0.354183 0.324161 0.337355 0.310718 0.305056 0.285227 0.184771 0.205178 0.176672 0.194249 0.176713 0.194285 0.169578 0.18492 0.205178 0.229395 0.194249 0.214472 0.194285 0.214445 0.18492 0.20209 0.229395 0.257786 0.214472 0.237114 0.214445 0.237057 0.20209 0.22068 0.257786 0.289946 0.237114 0.261378 0.237057 0.261301 0.22068 0.239827 0.289946 0.323623 0.261378 0.285279 0.261301 0.285196 0.239827 0.257858 0.323623 0.354107 0.285279 0.305117 0.285196 0.305028 0.257858 0.272372 0.354107 0.372886 0.305117 0.316823 0.305028 0.316676 0.272372 0.280545 0.372886 0.372903 0.316823 0.316809 0.316676 0.316677 0.280545 0.280518 0.372903 0.354183 0.316809 0.305024 0.316677 0.305056 0.280518 0.27225 0.354183 0.324161 0.305024 0.285188 0.305056 0.285227 0.27225 0.25772 0.176672 0.194249 0.167343 0.18247 0.169578 0.18492 0.161293 0.174668 0.194249 0.214472 0.18247 0.198937 0.18492 0.20209 0.174668 0.188932 0.214472 0.237114 0.198937 0.216606 0.20209 0.22068 0.188932 0.203862 0.237114 0.261378 0.216606 0.234607 0.22068 0.239827 0.203862 0.218652 0.261378 0.285279 0.234607 0.251288 0.239827 0.257858 0.218652 0.232051 0.285279 0.305117 0.251288 0.264726 0.257858 0.272372 0.232051 0.242375 0.305117 0.316823 0.264726 0.272119 0.272372 0.280545 0.242375 0.248065 0.316823 0.316809 0.272119 0.272086 0.280545 0.280518 0.248065 0.248027 0.316809 0.305024 0.272086 0.264597 0.280518 0.27225 0.248027 0.24222 0.305024 0.285188 0.264597 0.250228 0.27225 0.25772 0.24222 0.231307 0.161294 0.174669 0.169578 0.18492 0.154364 0.165932 0.161563 0.17465 0.174669 0.188932 0.18492 0.20209 0.165932 0.177997 0.17465 0.188877 0.188932 0.203861 0.20209 0.22068 0.177997 0.190301 0.188877 0.203767 0.203861 0.218651 0.22068 0.239826 0.190301 0.20216 0.203767 0.218532 0.218651 0.232049 0.239826 0.25786 0.20216 0.212605 0.218532 0.231917 0.232049 0.242379 0.25786 0.27238 0.212605 0.220498 0.231917 0.242273 0.242379 0.248083 0.27238 0.280564 0.220498 0.224755 0.242273 0.24797 0.248083 0.24805 0.280564 0.280532 0.224755 0.224713 0.24797 0.247946 0.24805 0.24224 0.280532 0.272266 0.224713 0.220354 0.247946 0.242148 0.24224 0.231324 0.272266 0.25774 0.220354 0.212053 0.242148 0.231742 0.169578 0.18492 0.176714 0.194286 0.161563 0.17465 0.167708 0.182486 0.18492 0.20209 0.194286 0.214446 0.17465 0.188877 0.182486 0.198856 0.20209 0.22068 0.214446 0.237058 0.188877 0.203767 0.198856 0.216453 0.22068 0.239826 0.237058 0.261304 0.203767 0.218532 0.216453 0.2344 0.239826 0.25786 0.261304 0.285199 0.218532 0.231917 0.2344 0.251118 0.25786 0.27238 0.285199 0.305037 0.231917 0.242273 0.251118 0.264462 0.27238 0.280564 0.305037 0.31669 0.242273 0.24797 0.264462 0.272008 0.280564 0.280532 0.31669 0.316838 0.24797 0.247946 0.272008 0.271934 0.280532 0.272266 0.316838 0.305145 0.247946 0.242148 0.271934 0.264343 0.272266 0.25774 0.305145 0.285227 0.242148 0.231742 0.264343 0.251003 0.176714 0.194286 0.182356 0.201869 0.167708 0.182486 0.172522 0.188738 0.194286 0.214446 0.201869 0.224765 0.182486 0.198856 0.188738 0.207018 0.214446 0.237058 0.224765 0.251235 0.198856 0.216453 0.207018 0.227085 0.237058 0.261304 0.251235 0.280662 0.216453 0.2344 0.227085 0.248049 0.261304 0.285199 0.280662 0.310737 0.2344 0.251118 0.248049 0.268149 0.285199 0.305037 0.310737 0.33724 0.251118 0.264462 0.268149 0.28441 0.31669 0.316838 0.352809 0.353983 0.272008 0.271934 0.293416 0.294588 0.316838 0.305145 0.353983 0.337461 0.271934 0.264343 0.294588 0.284249 0.305145 0.285227 0.337461 0.310712 0.264343 0.251003 0.284249 0.268417 0.182356 0.201869 0.185997 0.206847 0.172522 0.188738 0.175602 0.1928 0.201869 0.224765 0.206847 0.231714 0.188738 0.207018 0.1928 0.212408 0.224765 0.251235 0.231714 0.261034 0.207018 0.227085 0.212408 0.234252 0.251235 0.280662 0.261034 0.294534 0.227085 0.248049 0.234252 0.257453 0.280662 0.310737 0.294534 0.32987 0.248049 0.268149 0.257453 0.280127 0.33724 0.352809 0.363864 0.383336 0.28441 0.293416 0.297392 0.310002 0.352809 0.353983 0.383336 0.383135 0.293416 0.294588 0.310002 0.310074 0.353983 0.337461 0.383135 0.363891 0.294588 0.284249 0.310074 0.297433 0.185997 0.206847 0.18726 0.208583 0.175602 0.1928 0.176664 0.19421 0.206847 0.231714 0.208583 0.23417 0.1928 0.212408 0.19421 0.214299 0.231714 0.261034 0.23417 0.264572 0.212408 0.234252 0.214299 0.236784 0.261034 0.294534 0.264572 0.299637 0.234252 0.257453 0.236784 0.260894 0.294534 0.32987 0.299637 0.338161 0.257453 0.280127 0.260894 0.283997 0.32987 0.363864 0.338161 0.375505 0.280127 0.297392 0.283997 0.304332 0.363864 0.383336 0.375505 0.394455 0.297392 0.310002 0.304332 0.31609 0.383336 0.383135 0.394455 0.39451 0.310002 0.310074 0.31609 0.316091 0.383135 0.363891 0.39451 0.375317 0.310074 0.297433 0.316091 0.304341 0.363891 0.330301 0.375317 0.33949 0.297433 0.279968 0.304341 0.28448 0.18726 0.208583 0.185997 0.206846 0.176