<?xml version="1.0" ?> 
<!-- 
# vtk DataFile Version 3.0
#This file was generated by the deal.II library on 16:47:04 at 2019/11/27
-->
<VTKFile type="UnstructuredGrid" version="0.1" byte_order="LittleEndian">
<UnstructuredGrid>
<Piece NumberOfPoints="47144" NumberOfCells="5893" >
  <Points>
    <DataArray type="Float32" NumberOfComponents="3" format="ascii">
-50 -50 0
-40 -50 0
-50 -40 0
-40 -40 0
-50 -50 10
-40 -50 10
-50 -40 10
-40 -40 10
-40 -50 0
-30 -50 0
-40 -40 0
-30 -40 0
-40 -50 10
-30 -50 10
-40 -40 10
-30 -40 10
-30 -50 0
-20 -50 0
-30 -40 0
-20 -40 0
-30 -50 10
-20 -50 10
-30 -40 10
-20 -40 10
-20 -50 0
-10 -50 0
-20 -40 0
-10 -40 0
-20 -50 10
-10 -50 10
-20 -40 10
-10 -40 10
-10 -50 0
0 -50 0
-10 -40 0
0 -40 0
-10 -50 10
0 -50 10
-10 -40 10
0 -40 10
0 -50 0
10 -50 0
0 -40 0
10 -40 0
0 -50 10
10 -50 10
0 -40 10
10 -40 10
10 -50 0
20 -50 0
10 -40 0
20 -40 0
10 -50 10
20 -50 10
10 -40 10
20 -40 10
20 -50 0
30 -50 0
20 -40 0
30 -40 0
20 -50 10
30 -50 10
20 -40 10
30 -40 10
30 -50 0
40 -50 0
30 -40 0
40 -40 0
30 -50 10
40 -50 10
30 -40 10
40 -40 10
40 -50 0
50 -50 0
40 -40 0
50 -40 0
40 -50 10
50 -50 10
40 -40 10
50 -40 10
-50 -40 0
-40 -40 0
-50 -30 0
-40 -30 0
-50 -40 10
-40 -40 10
-50 -30 10
-40 -30 10
-40 -40 0
-30 -40 0
-40 -30 0
-30 -30 0
-40 -40 10
-30 -40 10
-40 -30 10
-30 -30 10
-30 -40 0
-20 -40 0
-30 -30 0
-20 -30 0
-30 -40 10
-20 -40 10
-30 -30 10
-20 -30 10
-20 -40 0
-10 -40 0
-20 -30 0
-10 -30 0
-20 -40 10
-10 -40 10
-20 -30 10
-10 -30 10
-10 -40 0
0 -40 0
-10 -30 0
0 -30 0
-10 -40 10
0 -40 10
-10 -30 10
0 -30 10
0 -40 0
10 -40 0
0 -30 0
10 -30 0
0 -40 10
10 -40 10
0 -30 10
10 -30 10
10 -40 0
20 -40 0
10 -30 0
20 -30 0
10 -40 10
20 -40 10
10 -30 10
20 -30 10
20 -40 0
30 -40 0
20 -30 0
30 -30 0
20 -40 10
30 -40 10
20 -30 10
30 -30 10
30 -40 0
40 -40 0
30 -30 0
40 -30 0
30 -40 10
40 -40 10
30 -30 10
40 -30 10
40 -40 0
50 -40 0
40 -30 0
50 -30 0
40 -40 10
50 -40 10
40 -30 10
50 -30 10
-10 -30 0
0 -30 0
-10 -20 0
0 -20 0
-10 -30 10
0 -30 10
-10 -20 10
0 -20 10
0 -30 0
10 -30 0
0 -20 0
10 -20 0
0 -30 10
10 -30 10
0 -20 10
10 -20 10
10 -30 0
20 -30 0
10 -20 0
20 -20 0
10 -30 10
20 -30 10
10 -20 10
20 -20 10
20 -30 0
30 -30 0
20 -20 0
30 -20 0
20 -30 10
30 -30 10
20 -20 10
30 -20 10
30 -30 0
40 -30 0
30 -20 0
40 -20 0
30 -30 10
40 -30 10
30 -20 10
40 -20 10
40 -30 0
50 -30 0
40 -20 0
50 -20 0
40 -30 10
50 -30 10
40 -20 10
50 -20 10
-10 -20 0
0 -20 0
-10 -10 0
0 -10 0
-10 -20 10
0 -20 10
-10 -10 10
0 -10 10
0 -20 0
10 -20 0
0 -10 0
10 -10 0
0 -20 10
10 -20 10
0 -10 10
10 -10 10
10 -20 0
20 -20 0
10 -10 0
20 -10 0
10 -20 10
20 -20 10
10 -10 10
20 -10 10
20 -20 0
30 -20 0
20 -10 0
30 -10 0
20 -20 10
30 -20 10
20 -10 10
30 -10 10
30 -20 0
40 -20 0
30 -10 0
40 -10 0
30 -20 10
40 -20 10
30 -10 10
40 -10 10
40 -20 0
50 -20 0
40 -10 0
50 -10 0
40 -20 10
50 -20 10
40 -10 10
50 -10 10
10 -10 0
20 -10 0
10 0 0
20 0 0
10 -10 10
20 -10 10
10 0 10
20 0 10
20 -10 0
30 -10 0
20 0 0
30 0 0
20 -10 10
30 -10 10
20 0 10
30 0 10
30 -10 0
40 -10 0
30 0 0
40 0 0
30 -10 10
40 -10 10
30 0 10
40 0 10
40 -10 0
50 -10 0
40 0 0
50 0 0
40 -10 10
50 -10 10
40 0 10
50 0 10
10 0 0
20 0 0
10 10 0
20 10 0
10 0 10
20 0 10
10 10 10
20 10 10
20 0 0
30 0 0
20 10 0
30 10 0
20 0 10
30 0 10
20 10 10
30 10 10
30 0 0
40 0 0
30 10 0
40 10 0
30 0 10
40 0 10
30 10 10
40 10 10
40 0 0
50 0 0
40 10 0
50 10 0
40 0 10
50 0 10
40 10 10
50 10 10
-10 10 0
0 10 0
-10 20 0
0 20 0
-10 10 10
0 10 10
-10 20 10
0 20 10
0 10 0
10 10 0
0 20 0
10 20 0
0 10 10
10 10 10
0 20 10
10 20 10
10 10 0
20 10 0
10 20 0
20 20 0
10 10 10
20 10 10
10 20 10
20 20 10
20 10 0
30 10 0
20 20 0
30 20 0
20 10 10
30 10 10
20 20 10
30 20 10
30 10 0
40 10 0
30 20 0
40 20 0
30 10 10
40 10 10
30 20 10
40 20 10
40 10 0
50 10 0
40 20 0
50 20 0
40 10 10
50 10 10
40 20 10
50 20 10
-10 20 0
0 20 0
-10 30 0
0 30 0
-10 20 10
0 20 10
-10 30 10
0 30 10
0 20 0
10 20 0
0 30 0
10 30 0
0 20 10
10 20 10
0 30 10
10 30 10
10 20 0
20 20 0
10 30 0
20 30 0
10 20 10
20 20 10
10 30 10
20 30 10
20 20 0
30 20 0
20 30 0
30 30 0
20 20 10
30 20 10
20 30 10
30 30 10
30 20 0
40 20 0
30 30 0
40 30 0
30 20 10
40 20 10
30 30 10
40 30 10
40 20 0
50 20 0
40 30 0
50 30 0
40 20 10
50 20 10
40 30 10
50 30 10
-50 30 0
-40 30 0
-50 40 0
-40 40 0
-50 30 10
-40 30 10
-50 40 10
-40 40 10
-40 30 0
-30 30 0
-40 40 0
-30 40 0
-40 30 10
-30 30 10
-40 40 10
-30 40 10
-30 30 0
-20 30 0
-30 40 0
-20 40 0
-30 30 10
-20 30 10
-30 40 10
-20 40 10
-20 30 0
-10 30 0
-20 40 0
-10 40 0
-20 30 10
-10 30 10
-20 40 10
-10 40 10
-10 30 0
0 30 0
-10 40 0
0 40 0
-10 30 10
0 30 10
-10 40 10
0 40 10
0 30 0
10 30 0
0 40 0
10 40 0
0 30 10
10 30 10
0 40 10
10 40 10
10 30 0
20 30 0
10 40 0
20 40 0
10 30 10
20 30 10
10 40 10
20 40 10
20 30 0
30 30 0
20 40 0
30 40 0
20 30 10
30 30 10
20 40 10
30 40 10
30 30 0
40 30 0
30 40 0
40 40 0
30 30 10
40 30 10
30 40 10
40 40 10
40 30 0
50 30 0
40 40 0
50 40 0
40 30 10
50 30 10
40 40 10
50 40 10
-50 40 0
-40 40 0
-50 50 0
-40 50 0
-50 40 10
-40 40 10
-50 50 10
-40 50 10
-40 40 0
-30 40 0
-40 50 0
-30 50 0
-40 40 10
-30 40 10
-40 50 10
-30 50 10
-30 40 0
-20 40 0
-30 50 0
-20 50 0
-30 40 10
-20 40 10
-30 50 10
-20 50 10
-20 40 0
-10 40 0
-20 50 0
-10 50 0
-20 40 10
-10 40 10
-20 50 10
-10 50 10
-10 40 0
0 40 0
-10 50 0
0 50 0
-10 40 10
0 40 10
-10 50 10
0 50 10
0 40 0
10 40 0
0 50 0
10 50 0
0 40 10
10 40 10
0 50 10
10 50 10
10 40 0
20 40 0
10 50 0
20 50 0
10 40 10
20 40 10
10 50 10
20 50 10
20 40 0
30 40 0
20 50 0
30 50 0
20 40 10
30 40 10
20 50 10
30 50 10
30 40 0
40 40 0
30 50 0
40 50 0
30 40 10
40 40 10
30 50 10
40 50 10
40 40 0
50 40 0
40 50 0
50 50 0
40 40 10
50 40 10
40 50 10
50 50 10
-50 -50 10
-40 -50 10
-50 -40 10
-40 -40 10
-50 -50 20
-40 -50 20
-50 -40 20
-40 -40 20
-40 -50 10
-30 -50 10
-40 -40 10
-30 -40 10
-40 -50 20
-30 -50 20
-40 -40 20
-30 -40 20
-30 -50 10
-20 -50 10
-30 -40 10
-20 -40 10
-30 -50 20
-20 -50 20
-30 -40 20
-20 -40 20
-20 -50 10
-10 -50 10
-20 -40 10
-10 -40 10
-20 -50 20
-10 -50 20
-20 -40 20
-10 -40 20
-10 -50 10
0 -50 10
-10 -40 10
0 -40 10
-10 -50 20
0 -50 20
-10 -40 20
0 -40 20
0 -50 10
10 -50 10
0 -40 10
10 -40 10
0 -50 20
10 -50 20
0 -40 20
10 -40 20
10 -50 10
20 -50 10
10 -40 10
20 -40 10
10 -50 20
20 -50 20
10 -40 20
20 -40 20
20 -50 10
30 -50 10
20 -40 10
30 -40 10
20 -50 20
30 -50 20
20 -40 20
30 -40 20
30 -50 10
40 -50 10
30 -40 10
40 -40 10
30 -50 20
40 -50 20
30 -40 20
40 -40 20
40 -50 10
50 -50 10
40 -40 10
50 -40 10
40 -50 20
50 -50 20
40 -40 20
50 -40 20
-50 -40 10
-40 -40 10
-50 -30 10
-40 -30 10
-50 -40 20
-40 -40 20
-50 -30 20
-40 -30 20
-30 -40 10
-20 -40 10
-30 -30 10
-20 -30 10
-30 -40 20
-20 -40 20
-30 -30 20
-20 -30 20
-20 -40 10
-10 -40 10
-20 -30 10
-10 -30 10
-20 -40 20
-10 -40 20
-20 -30 20
-10 -30 20
-10 -40 10
0 -40 10
-10 -30 10
0 -30 10
-10 -40 20
0 -40 20
-10 -30 20
0 -30 20
0 -40 10
10 -40 10
0 -30 10
10 -30 10
0 -40 20
10 -40 20
0 -30 20
10 -30 20
10 -40 10
20 -40 10
10 -30 10
20 -30 10
10 -40 20
20 -40 20
10 -30 20
20 -30 20
20 -40 10
30 -40 10
20 -30 10
30 -30 10
20 -40 20
30 -40 20
20 -30 20
30 -30 20
30 -40 10
40 -40 10
30 -30 10
40 -30 10
30 -40 20
40 -40 20
30 -30 20
40 -30 20
40 -40 10
50 -40 10
40 -30 10
50 -30 10
40 -40 20
50 -40 20
40 -30 20
50 -30 20
-10 -30 10
0 -30 10
-10 -20 10
0 -20 10
-10 -30 20
0 -30 20
-10 -20 20
0 -20 20
0 -30 10
10 -30 10
0 -20 10
10 -20 10
0 -30 20
10 -30 20
0 -20 20
10 -20 20
10 -30 10
20 -30 10
10 -20 10
20 -20 10
10 -30 20
20 -30 20
10 -20 20
20 -20 20
20 -30 10
30 -30 10
20 -20 10
30 -20 10
20 -30 20
30 -30 20
20 -20 20
30 -20 20
30 -30 10
40 -30 10
30 -20 10
40 -20 10
30 -30 20
40 -30 20
30 -20 20
40 -20 20
40 -30 10
50 -30 10
40 -20 10
50 -20 10
40 -30 20
50 -30 20
40 -20 20
50 -20 20
-10 -20 10
0 -20 10
-10 -10 10
0 -10 10
-10 -20 20
0 -20 20
-10 -10 20
0 -10 20
0 -20 10
10 -20 10
0 -10 10
10 -10 10
0 -20 20
10 -20 20
0 -10 20
10 -10 20
10 -20 10
20 -20 10
10 -10 10
20 -10 10
10 -20 20
20 -20 20
10 -10 20
20 -10 20
20 -20 10
30 -20 10
20 -10 10
30 -10 10
20 -20 20
30 -20 20
20 -10 20
30 -10 20
30 -20 10
40 -20 10
30 -10 10
40 -10 10
30 -20 20
40 -20 20
30 -10 20
40 -10 20
40 -20 10
50 -20 10
40 -10 10
50 -10 10
40 -20 20
50 -20 20
40 -10 20
50 -10 20
-10 -10 10
0 -10 10
-10 0 10
0 0 10
-10 -10 20
0 -10 20
-10 0 20
0 0 20
0 -10 10
10 -10 10
0 0 10
10 0 10
0 -10 20
10 -10 20
0 0 20
10 0 20
10 -10 10
20 -10 10
10 0 10
20 0 10
10 -10 20
20 -10 20
10 0 20
20 0 20
20 -10 10
30 -10 10
20 0 10
30 0 10
20 -10 20
30 -10 20
20 0 20
30 0 20
30 -10 10
40 -10 10
30 0 10
40 0 10
30 -10 20
40 -10 20
30 0 20
40 0 20
40 -10 10
50 -10 10
40 0 10
50 0 10
40 -10 20
50 -10 20
40 0 20
50 0 20
-10 0 10
0 0 10
-10 10 10
0 10 10
-10 0 20
0 0 20
-10 10 20
0 10 20
0 0 10
10 0 10
0 10 10
10 10 10
0 0 20
10 0 20
0 10 20
10 10 20
10 0 10
20 0 10
10 10 10
20 10 10
10 0 20
20 0 20
10 10 20
20 10 20
20 0 10
30 0 10
20 10 10
30 10 10
20 0 20
30 0 20
20 10 20
30 10 20
30 0 10
40 0 10
30 10 10
40 10 10
30 0 20
40 0 20
30 10 20
40 10 20
40 0 10
50 0 10
40 10 10
50 10 10
40 0 20
50 0 20
40 10 20
50 10 20
-10 10 10
0 10 10
-10 20 10
0 20 10
-10 10 20
0 10 20
-10 20 20
0 20 20
0 10 10
10 10 10
0 20 10
10 20 10
0 10 20
10 10 20
0 20 20
10 20 20
10 10 10
20 10 10
10 20 10
20 20 10
10 10 20
20 10 20
10 20 20
20 20 20
20 10 10
30 10 10
20 20 10
30 20 10
20 10 20
30 10 20
20 20 20
30 20 20
30 10 10
40 10 10
30 20 10
40 20 10
30 10 20
40 10 20
30 20 20
40 20 20
40 10 10
50 10 10
40 20 10
50 20 10
40 10 20
50 10 20
40 20 20
50 20 20
-10 20 10
0 20 10
-10 30 10
0 30 10
-10 20 20
0 20 20
-10 30 20
0 30 20
0 20 10
10 20 10
0 30 10
10 30 10
0 20 20
10 20 20
0 30 20
10 30 20
10 20 10
20 20 10
10 30 10
20 30 10
10 20 20
20 20 20
10 30 20
20 30 20
20 20 10
30 20 10
20 30 10
30 30 10
20 20 20
30 20 20
20 30 20
30 30 20
30 20 10
40 20 10
30 30 10
40 30 10
30 20 20
40 20 20
30 30 20
40 30 20
40 20 10
50 20 10
40 30 10
50 30 10
40 20 20
50 20 20
40 30 20
50 30 20
-50 30 10
-40 30 10
-50 40 10
-40 40 10
-50 30 20
-40 30 20
-50 40 20
-40 40 20
-40 30 10
-30 30 10
-40 40 10
-30 40 10
-40 30 20
-30 30 20
-40 40 20
-30 40 20
-30 30 10
-20 30 10
-30 40 10
[...]
  <PointData Scalars="scalars">
    <DataArray type="Float32" Name="u" format="ascii">
0.310773 0.318455 0.385523 0.397718 0.304887 0.312137 0.37426 0.385628 0.318455 0.312309 0.397718 0.385475 0.312137 0.306421 0.385628 0.374784 0.312309 0.295686 0.385475 0.355887 0.306421 0.290637 0.374784 0.347212 0.295686 0.272722 0.355887 0.318966 0.290637 0.269017 0.347212 0.311965 0.272722 0.248839 0.318966 0.281561 0.269017 0.245839 0.311965 0.277308 0.248839 0.225327 0.281561 0.248734 0.245839 0.223138 0.277308 0.245763 0.225327 0.203947 0.248734 0.220777 0.223138 0.20231 0.245763 0.218713 0.203947 0.185082 0.220777 0.197431 0.20231 0.183858 0.218713 0.195941 0.185082 0.168672 0.197431 0.177873 0.183858 0.167742 0.195941 0.176784 0.168672 0.15426 0.177873 0.161503 0.167742 0.15355 0.176784 0.160687 0.385523 0.397718 0.504223 0.530383 0.37426 0.385628 0.478867 0.502455 0.397718 0.385475 0.530383 0.500965 0.385628 0.374784 0.502455 0.479968 0.385475 0.355887 0.500965 0.445193 0.374784 0.347212 0.479968 0.428447 0.355887 0.318966 0.445193 0.376643 0.347212 0.311965 0.428447 0.365311 0.318966 0.281561 0.376643 0.31891 0.311965 0.277308 0.365311 0.311936 0.281561 0.248734 0.31891 0.272638 0.277308 0.245763 0.311936 0.268844 0.248734 0.220777 0.272638 0.23728 0.245763 0.218713 0.268844 0.234673 0.220777 0.197431 0.23728 0.20896 0.218713 0.195941 0.234673 0.207205 0.197431 0.177873 0.20896 0.1862 0.195941 0.176784 0.207205 0.184948 0.177873 0.161503 0.1862 0.167665 0.176784 0.160687 0.184948 0.16675 0.376643 0.31891 0.443162 0.355922 0.365311 0.311936 0.427787 0.347206 0.31891 0.272638 0.355922 0.295384 0.311936 0.268844 0.347206 0.29039 0.272638 0.23728 0.295384 0.251679 0.268844 0.234673 0.29039 0.248952 0.23728 0.20896 0.251679 0.2186 0.234673 0.207205 0.248952 0.216503 0.20896 0.1862 0.2186 0.192933 0.207205 0.184948 0.216503 0.191523 0.1862 0.167665 0.192933 0.172506 0.184948 0.16675 0.191523 0.171511 0.443162 0.355922 0.502942 0.383809 0.427787 0.347206 0.480869 0.373039 0.355922 0.295384 0.383809 0.311997 0.347206 0.29039 0.373039 0.306008 0.295384 0.251679 0.311997 0.261344 0.29039 0.248952 0.306008 0.257733 0.251679 0.2186 0.261344 0.225646 0.248952 0.216503 0.257733 0.22284 0.2186 0.192933 0.225646 0.197324 0.216503 0.191523 0.22284 0.195868 0.192933 0.172506 0.197324 0.175635 0.191523 0.171511 0.195868 0.174562 0.311997 0.261344 0.32053 0.264928 0.306008 0.257733 0.311652 0.261321 0.261344 0.225646 0.264928 0.22759 0.257733 0.22284 0.261321 0.225645 0.225646 0.197324 0.22759 0.198962 0.22284 0.195868 0.225645 0.197324 0.197324 0.175635 0.198962 0.176692 0.195868 0.174562 0.197324 0.175635 0.32053 0.264928 0.312144 0.261347 0.311652 0.261321 0.305808 0.257721 0.264928 0.22759 0.261347 0.225643 0.261321 0.225645 0.257721 0.222837 0.22759 0.198962 0.225643 0.197322 0.225645 0.197324 0.222837 0.195866 0.198962 0.176692 0.197322 0.175634 0.197324 0.175635 0.195866 0.174561 0.503122 0.382908 0.444969 0.355865 0.482172 0.374098 0.428066 0.347301 0.382908 0.312144 0.355865 0.29538 0.374098 0.305808 0.347301 0.290366 0.312144 0.261347 0.29538 0.251673 0.305808 0.257721 0.290366 0.248942 0.261347 0.225643 0.251673 0.218595 0.257721 0.222837 0.248942 0.216499 0.225643 0.197322 0.218595 0.19293 0.222837 0.195866 0.216499 0.19152 0.197322 0.175634 0.19293 0.172503 0.195866 0.174561 0.19152 0.171508 0.444969 0.355865 0.376028 0.318597 0.428066 0.347301 0.366258 0.312492 0.355865 0.29538 0.318597 0.272688 0.347301 0.290366 0.312492 0.268778 0.29538 0.251673 0.272688 0.237267 0.290366 0.248942 0.268778 0.234675 0.251673 0.218595 0.237267 0.208957 0.248942 0.216499 0.234675 0.207199 0.218595 0.19293 0.208957 0.186197 0.216499 0.19152 0.207199 0.184945 0.19293 0.172503 0.186197 0.167662 0.19152 0.171508 0.184945 0.166747 0.503988 0.530066 0.385462 0.397657 0.478645 0.501081 0.37414 0.385337 0.530066 0.500992 0.397657 0.385441 0.501081 0.479008 0.385337 0.37453 0.500992 0.445341 0.385441 0.355845 0.479008 0.428451 0.37453 0.347217 0.445341 0.376028 0.355845 0.318633 0.428451 0.366258 0.347217 0.312523 0.376028 0.318597 0.318633 0.281508 0.366258 0.312492 0.312523 0.277258 0.318597 0.272688 0.281508 0.248734 0.312492 0.268778 0.277258 0.245784 0.272688 0.237267 0.248734 0.220776 0.268778 0.234675 0.245784 0.218706 0.237267 0.208957 0.220776 0.197427 0.234675 0.207199 0.218706 0.195938 0.208957 0.186197 0.197427 0.17787 0.207199 0.184945 0.195938 0.17678 0.186197 0.167662 0.17787 0.1615 0.184945 0.166747 0.17678 0.160684 0.385462 0.397657 0.310719 0.318397 0.37414 0.385337 0.304815 0.31204 0.397657 0.385441 0.318397 0.312264 0.385337 0.37453 0.31204 0.306336 0.385441 0.355845 0.312264 0.295674 0.37453 0.347217 0.306336 0.290612 0.355845 0.318633 0.295674 0.272835 0.347217 0.312523 0.290612 0.268898 0.318633 0.281508 0.272835 0.24884 0.312523 0.277258 0.268898 0.245882 0.281508 0.248734 0.24884 0.225324 0.277258 0.245784 0.245882 0.223125 0.248734 0.220776 0.225324 0.203945 0.245784 0.218706 0.223125 0.20231 0.220776 0.197427 0.203945 0.185079 0.218706 0.195938 0.20231 0.183854 0.197427 0.17787 0.185079 0.168669 0.195938 0.17678 0.183854 0.167739 0.17787 0.1615 0.168669 0.154256 0.17678 0.160684 0.167739 0.153547 0.304887 0.312137 0.37426 0.385628 0.289397 0.295438 0.346899 0.355762 0.312137 0.306421 0.385628 0.374784 0.295438 0.290565 0.355762 0.347226 0.306421 0.290637 0.374784 0.347212 0.290565 0.276449 0.347226 0.323741 0.290637 0.269017 0.347212 0.311965 0.276449 0.258235 0.323741 0.295751 0.269017 0.245839 0.311965 0.277308 0.258235 0.237585 0.295751 0.26558 0.245839 0.223138 0.277308 0.245763 0.237585 0.216903 0.26558 0.237506 0.223138 0.20231 0.245763 0.218713 0.216903 0.197628 0.237506 0.212835 0.20231 0.183858 0.218713 0.195941 0.197628 0.180321 0.212835 0.191672 0.183858 0.167742 0.195941 0.176784 0.180321 0.165042 0.191672 0.17363 0.167742 0.15355 0.176784 0.160687 0.165042 0.151479 0.17363 0.158311 0.37426 0.385628 0.478867 0.502455 0.346899 0.355762 0.42972 0.444408 0.374784 0.347212 0.479968 0.428447 0.347226 0.323741 0.427704 0.38645 0.347212 0.311965 0.428447 0.365311 0.323741 0.295751 0.38645 0.339776 0.311965 0.277308 0.365311 0.311936 0.295751 0.26558 0.339776 0.295727 0.277308 0.245763 0.311936 0.268844 0.26558 0.237506 0.295727 0.258171 0.245763 0.218713 0.268844 0.234673 0.237506 0.212835 0.258171 0.227393 0.218713 0.195941 0.234673 0.207205 0.212835 0.191672 0.227393 0.202152 0.195941 0.176784 0.207205 0.184948 0.191672 0.17363 0.202152 0.181344 0.176784 0.160687 0.184948 0.16675 0.17363 0.158311 0.181344 0.164095 0.365311 0.311936 0.427787 0.347206 0.339776 0.295727 0.386491 0.323771 0.311936 0.268844 0.347206 0.29039 0.295727 0.258171 0.323771 0.276251 0.268844 0.234673 0.29039 0.248952 0.258171 0.227393 0.276251 0.239931 0.234673 0.207205 0.248952 0.216503 0.227393 0.202152 0.239931 0.210803 0.207205 0.184948 0.216503 0.191523 0.202152 0.181344 0.210803 0.1875 0.184948 0.16675 0.191523 0.171511 0.181344 0.164095 0.1875 0.168619 0.427787 0.347206 0.480869 0.373039 0.386491 0.323771 0.428327 0.347062 0.347206 0.29039 0.373039 0.306008 0.323771 0.276251 0.347062 0.290375 0.29039 0.248952 0.306008 0.257733 0.276251 0.239931 0.290375 0.248948 0.248952 0.216503 0.257733 0.22284 0.239931 0.210803 0.248948 0.216506 0.216503 0.191523 0.22284 0.195868 0.210803 0.1875 0.216506 0.191528 0.191523 0.171511 0.195868 0.174562 0.1875 0.168619 0.191528 0.171515 0.480869 0.373039 0.506765 0.386654 0.428327 0.347062 0.44392 0.355926 0.373039 0.306008 0.386654 0.311652 0.347062 0.290375 0.355926 0.295428 0.306008 0.257733 0.311652 0.261321 0.290375 0.248948 0.295428 0.251695 0.257733 0.22284 0.261321 0.225645 0.248948 0.216506 0.251695 0.2186 0.22284 0.195868 0.225645 0.197324 0.216506 0.191528 0.2186 0.192939 0.195868 0.174562 0.197324 0.175635 0.191528 0.171515 0.192939 0.172509 0.506765 0.386654 0.482172 0.374098 0.44392 0.355926 0.428033 0.347136 0.386654 0.311652 0.374098 0.305808 0.355926 0.295428 0.347136 0.290364 0.311652 0.261321 0.305808 0.257721 0.295428 0.251695 0.290364 0.248942 0.261321 0.225645 0.257721 0.222837 0.251695 0.2186 0.248942 0.216503 0.225645 0.197324 0.222837 0.195866 0.2186 0.192939 0.216503 0.191527 0.197324 0.175635 0.195866 0.174561 0.192939 0.172509 0.191527 0.171514 0.482172 0.374098 0.428066 0.347301 0.428033 0.347136 0.386526 0.323748 0.374098 0.305808 0.347301 0.290366 0.347136 0.290364 0.323748 0.276233 0.305808 0.257721 0.290366 0.248942 0.290364 0.248942 0.276233 0.239924 0.257721 0.222837 0.248942 0.216499 0.248942 0.216503 0.239924 0.210799 0.222837 0.195866 0.216499 0.19152 0.216503 0.191527 0.210799 0.187497 0.195866 0.174561 0.19152 0.171508 0.191527 0.171514 0.187497 0.168617 0.428066 0.347301 0.366258 0.312492 0.386526 0.323748 0.339577 0.295591 0.347301 0.290366 0.312492 0.268778 0.323748 0.276233 0.295591 0.258188 0.290366 0.248942 0.268778 0.234675 0.276233 0.239924 0.258188 0.227383 0.248942 0.216499 0.234675 0.207199 0.239924 0.210799 0.227383 0.202148 0.216499 0.19152 0.207199 0.184945 0.210799 0.187497 0.202148 0.18134 0.19152 0.171508 0.184945 0.166747 0.187497 0.168617 0.18134 0.164092 0.478645 0.501081 0.37414 0.385337 0.42957 0.445302 0.346843 0.355691 0.501081 0.479008 0.385337 0.37453 0.445302 0.428435 0.355691 0.34716 0.479008 0.428451 0.37453 0.347217 0.428435 0.386411 0.34716 0.323762 0.428451 0.366258 0.347217 0.312523 0.386411 0.339577 0.323762 0.295605 0.366258 0.312492 0.312523 0.277258 0.339577 0.295591 0.295605 0.265565 0.312492 0.268778 0.277258 0.245784 0.295591 0.258188 0.265565 0.2375 0.268778 0.234675 0.245784 0.218706 0.258188 0.227383 0.2375 0.212831 0.234675 0.207199 0.218706 0.195938 0.227383 0.202148 0.212831 0.191667 0.207199 0.184945 0.195938 0.17678 0.202148 0.18134 0.191667 0.173626 0.184945 0.166747 0.17678 0.160684 0.18134 0.164092 0.173626 0.158308 0.37414 0.385337 0.304815 0.31204 0.346843 0.355691 0.289353 0.295391 0.385337 0.37453 0.31204 0.306336 0.355691 0.34716 0.295391 0.290522 0.37453 0.347217 0.306336 0.290612 0.34716 0.323762 0.290522 0.276415 0.347217 0.312523 0.290612 0.268898 0.323762 0.295605 0.276415 0.258281 0.312523 0.277258 0.268898 0.245882 0.295605 0.265565 0.258281 0.237579 0.277258 0.245784 0.245882 0.223125 0.265565 0.2375 0.237579 0.216898 0.245784 0.218706 0.223125 0.20231 0.2375 0.212831 0.216898 0.197624 0.218706 0.195938 0.20231 0.183854 0.212831 0.191667 0.197624 0.180317 0.195938 0.17678 0.183854 0.167739 0.191667 0.173626 0.180317 0.165039 0.17678 0.160684 0.167739 0.153547 0.173626 0.158308 0.165039 0.151476 0.289397 0.295438 0.346899 0.355762 0.268237 0.272584 0.312245 0.318441 0.295438 0.290565 0.355762 0.347226 0.272584 0.268771 0.318441 0.312425 0.290565 0.276449 0.347226 0.323741 0.268771 0.258233 0.312425 0.295566 0.276449 0.258235 0.323741 0.295751 0.258233 0.24295 0.295566 0.273295 0.258235 0.237585 0.295751 0.26558 0.24295 0.225479 0.273295 0.248974 0.237585 0.216903 0.26558 0.237506 0.225479 0.207563 0.248974 0.225402 0.216903 0.197628 0.237506 0.212835 0.207563 0.190484 0.225402 0.20399 0.197628 0.180321 0.212835 0.191672 0.190484 0.174843 0.20399 0.18513 0.180321 0.165042 0.191672 0.17363 0.174843 0.160813 0.18513 0.168723 0.165042 0.151479 0.17363 0.158311 0.160813 0.148202 0.168723 0.154571 0.346899 0.355762 0.42972 0.444408 0.312245 0.318441 0.366395 0.376059 0.355762 0.347226 0.444408 0.427704 0.318441 0.312425 0.376059 0.36619 0.347226 0.323741 0.427704 0.38645 0.312425 0.295566 0.36619 0.339502 0.323741 0.295751 0.38645 0.339776 0.295566 0.273295 0.339502 0.306769 0.295751 0.26558 0.339776 0.295727 0.273295 0.248974 0.306769 0.273277 0.26558 0.237506 0.295727 0.258171 0.248974 0.225402 0.273277 0.242885 0.237506 0.212835 0.258171 0.227393 0.225402 0.20399 0.242885 0.216696 0.212835 0.191672 0.227393 0.202152 0.20399 0.18513 0.216696 0.194507 0.191672 0.17363 0.202152 0.181344 0.18513 0.168723 0.194507 0.175772 0.17363 0.158311 0.181344 0.164095 0.168723 0.154571 0.175772 0.159939 0.38645 0.339776 0.458831 0.386491 0.339502 0.306769 0.386398 0.339693 0.339776 0.295727 0.386491 0.323771 0.306769 0.273277 0.339693 0.295687 0.295727 0.258171 0.323771 0.276251 0.273277 0.242885 0.295687 0.25811 0.258171 0.227393 0.276251 0.239931 0.242885 0.216696 0.25811 0.227376 0.227393 0.202152 0.239931 0.210803 0.216696 0.194507 0.227376 0.202157 0.202152 0.181344 0.210803 0.1875 0.194507 0.175772 0.202157 0.181358 0.181344 0.164095 0.1875 0.168619 0.175772 0.159939 0.181358 0.164112 0.386491 0.323771 0.428327 0.347062 0.339693 0.295687 0.365419 0.311313 0.323771 0.276251 0.347062 0.290375 0.295687 0.25811 0.311313 0.26876 0.276251 0.239931 0.290375 0.248948 0.25811 0.227376 0.26876 0.234685 0.239931 0.210803 0.248948 0.216506 0.227376 0.202157 0.234685 0.207209 0.210803 0.1875 0.216506 0.191528 0.202157 0.181358 0.207209 0.184969 0.1875 0.168619 0.191528 0.171515 0.181358 0.164112 0.184969 0.166772 0.428327 0.347062 0.44392 0.355926 0.365419 0.311313 0.376545 0.31833 0.347062 0.290375 0.355926 0.295428 0.311313 0.26876 0.31833 0.273255 0.290375 0.248948 0.295428 0.251695 0.26876 0.234685 0.273255 0.237235 0.248948 0.216506 0.251695 0.2186 0.234685 0.207209 0.237235 0.208973 0.216506 0.191528 0.2186 0.192939 0.207209 0.184969 0.208973 0.186222 0.191528 0.171515 0.192939 0.172509 0.184969 0.166772 0.186222 0.167688 0.44392 0.355926 0.428033 0.347136 0.376545 0.31833 0.36547 0.311282 0.355926 0.295428 0.347136 0.290364 0.31833 0.273255 0.311282 0.268752 0.295428 0.251695 0.290364 0.248942 0.273255 0.237235 0.268752 0.23468 0.251695 0.2186 0.248942 0.216503 0.237235 0.208973 0.23468 0.207207 0.2186 0.192939 0.216503 0.191527 0.208973 0.186222 0.207207 0.184968 0.192939 0.172509 0.191527 0.171514 0.186222 0.167688 0.184968 0.166771 0.428033 0.347136 0.386526 0.323748 0.36547 0.311282 0.339636 0.295663 0.347136 0.290364 0.323748 0.276233 0.311282 0.268752 0.295663 0.258095 0.290364 0.248942 0.276233 0.239924 0.268752 0.23468 0.258095 0.227369 0.248942 0.216503 0.239924 0.210799 0.23468 0.207207 0.227369 0.202152 0.216503 0.191527 0.210799 0.187497 0.207207 0.184968 0.202152 0.181355 0.191527 0.171514 0.187497 0.168617 0.184968 0.166771 0.181355 0.16411 0.458877 0.386526 0.386411 0.339577 0.386553 0.339636 0.339499 0.306754 0.386526 0.323748 0.339577 0.295591 0.339636 0.295663 0.306754 0.273248 0.323748 0.276233 0.295591 0.258188 0.295663 0.258095 0.273248 0.242865 0.276233 0.239924 0.258188 0.227383 0.258095 0.227369 0.242865 0.21669 0.239924 0.210799 0.227383 0.202148 0.227369 0.202152 0.21669 0.194502 0.210799 0.187497 0.202148 0.18134 0.202152 0.181355 0.194502 0.175769 0.187497 0.168617 0.18134 0.164092 0.181355 0.16411 0.175769 0.159936 0.42957 0.445302 0.346843 0.355691 0.366441 0.375991 0.312256 0.318449 0.445302 0.428435 0.355691 0.34716 0.375991 0.366218 0.318449 0.312435 0.428435 0.386411 0.34716 0.323762 0.366218 0.339499 0.312435 0.295552 0.386411 0.339577 0.323762 0.295605 0.339499 0.306754 0.295552 0.273272 0.339577 0.295591 0.295605 0.265565 0.306754 0.273248 0.273272 0.248942 0.295591 0.258188 0.265565 0.2375 0.273248 0.242865 0.248942 0.225389 0.258188 0.227383 0.2375 0.212831 0.242865 0.21669 0.225389 0.203984 0.227383 0.202148 0.212831 0.191667 0.21669 0.194502 0.203984 0.185126 0.202148 0.18134 0.191667 0.173626 0.194502 0.175769 0.185126 0.16872 0.18134 0.164092 0.173626 0.158308 0.175769 0.159936 0.16872 0.154568 0.346843 0.355691 0.289353 0.295391 0.312256 0.318449 0.268227 0.272572 0.355691 0.34716 0.295391 0.290522 0.318449 0.312435 0.272572 0.268758 0.34716 0.323762 0.290522 0.276415 0.312435 0.295552 0.268758 0.258222 0.323762 0.295605 0.276415 0.258281 0.295552 0.273272 0.258222 0.242921 0.295605 0.265565 0.258281 0.237579 0.273272 0.248942 0.242921 0.225463 0.265565 0.2375 0.237579 0.216898 0.248942 0.225389 0.225463 0.207552 0.2375 0.212831 0.216898 0.197624 0.225389 0.203984 0.207552 0.190478 0.212831 0.191667 0.197624 0.180317 0.203984 0.185126 0.190478 0.174839 0.191667 0.173626 0.180317 0.165039 0.185126 0.16872 0.174839 0.160809 0.173626 0.158308 0.165039 0.151476 0.16872 0.154568 0.160809 0.148199 0.268237 0.272584 0.312245 0.318441 0.245317 0.248584 0.276948 0.281268 0.272584 0.268771 0.318441 0.312425 0.248584 0.245718 0.281268 0.277106 0.268771 0.258233 0.312425 0.295566 0.245718 0.237492 0.277106 0.265461 0.258233 0.24295 0.295566 0.273295 0.237492 0.22543 0.265461 0.248917 0.24295 0.225479 0.273295 0.248974 0.22543 0.211204 0.248917 0.230113 0.225479 0.207563 0.248974 0.225402 0.211204 0.196264 0.230113 0.211143 0.207563 0.190484 0.225402 0.20399 0.196264 0.181643 0.211143 0.193246 0.190484 0.174843 0.20399 0.18513 0.181643 0.167934 0.193246 0.176988 0.174843 0.160813 0.18513 0.168723 0.167934 0.155392 0.176988 0.162494 0.160813 0.148202 0.168723 0.154571 0.155392 0.143942 0.162494 0.149744 0.312245 0.318441 0.366395 0.376059 0.276948 0.281268 0.312349 0.317813 0.318441 0.312425 0.376059 0.36619 0.281268 0.277106 0.317813 0.31176 0.312425 0.295566 0.36619 0.339502 0.277106 0.265461 0.31176 0.295538 0.295566 0.273295 0.339502 0.306769 0.265461 0.248917 0.295538 0.273215 0.273295 0.248974 0.306769 0.273277 0.248917 0.230113 0.273215 0.248912 0.248974 0.225402 0.273277 0.242885 0.230113 0.211143 0.248912 0.22535 0.225402 0.20399 0.242885 0.216696 0.211143 0.193246 0.22535 0.203963 0.20399 0.18513 0.216696 0.194507 0.193246 0.176988 0.203963 0.185128 0.18513 0.168723 0.194507 0.175772 0.176988 0.162494 0.185128 0.168761 0.168723 0.154571 0.175772 0.159939 0.162494 0.149744 0.168761 0.15461 0.366395 0.376059 0.428674 0.444276 0.312349 0.317813 0.346932 0.355648 0.376059 0.36619 0.444276 0.428035 0.317813 0.31176 0.355648 0.347036 0.36619 0.339502 0.428035 0.386398 0.31176 0.295538 0.347036 0.323607 0.339502 0.306769 0.386398 0.339693 0.295538 0.273215 0.323607 0.295628 0.306769 0.273277 0.339693 0.295687 0.273215 0.248912 0.295628 0.26541 0.273277 0.242885 0.295687 0.25811 0.248912 0.22535 0.26541 0.237404 0.242885 0.216696 0.25811 0.227376 0.22535 0.203963 0.237404 0.212796 0.216696 0.194507 0.227376 0.202157 0.203963 0.185128 0.212796 0.191674 0.194507 0.175772 0.202157 0.181358 0.185128 0.168761 0.191674 0.173685 0.175772 0.159939 0.181358 0.164112 0.168761 0.15461 0.173685 0.15837 0.428674 0.444276 0.482599 0.505505 0.346932 0.355648 0.37463 0.385752 0.444276 0.428035 0.505505 0.480729 0.355648 0.347036 0.385752 0.374681 0.428035 0.386398 0.480729 0.428364 0.347036 0.323607 0.374681 0.347035 0.386398 0.339693 0.428364 0.365419 0.323607 0.295628 0.347035 0.311257 0.339693 0.295687 0.365419 0.311313 0.295628 0.26541 0.311257 0.277008 0.295687 0.25811 0.311313 0.26876 0.26541 0.237404 0.277008 0.245671 0.25811 0.227376 0.26876 0.234685 0.237404 0.212796 0.245671 0.218687 0.227376 0.202157 0.234685 0.207209 0.212796 0.191674 0.218687 0.195949 0.202157 0.181358 0.207209 0.184969 0.191674 0.173685 0.195949 0.176848 0.181358 0.164112 0.184969 0.166772 0.173685 0.15837 0.176848 0.160754 0.482599 0.505505 0.504135 0.530768 0.37463 0.385752 0.385485 0.397686 0.505505 0.480729 0.530768 0.503923 0.385752 0.374681 0.397686 0.385683 0.480729 0.428364 0.503923 0.444653 0.374681 0.347035 0.385683 0.355736 0.428364 0.365419 0.444653 0.376545 0.347035 0.311257 0.355736 0.318283 0.365419 0.311313 0.376545 0.31833 0.311257 0.277008 0.318283 0.281687 0.311313 0.26876 0.31833 0.273255 0.277008 0.245671 0.281687 0.248673 0.26876 0.234685 0.273255 0.237235 0.245671 0.218687 0.248673 0.220776 0.234685 0.207209 0.237235 0.208973 0.218687 0.195949 0.220776 0.197437 0.207209 0.184969 0.208973 0.186222 0.195949 0.176848 0.197437 0.17794 0.184969 0.166772 0.186222 0.167688 0.176848 0.160754 0.17794 0.161572 0.504135 0.530768 0.478329 0.504023 0.385485 0.397686 0.37423 0.385634 0.530768 0.503923 0.504023 0.483884 0.397686 0.385683 0.385634 0.374951 0.503923 0.444653 0.483884 0.42766 0.385683 0.355736 0.374951 0.347014 0.444653 0.376545 0.42766 0.36547 0.355736 0.318283 0.347014 0.311228 0.376545 0.31833 0.36547 0.311282 0.318283 0.281687 0.311228 0.277005 0.31833 0.273255 0.311282 0.268752 0.281687 0.248673 0.27