<?xml version="1.0" ?> 
<!-- 
# vtk DataFile Version 3.0
#This file was generated by the deal.II library on 16:50:39 at 2019/11/27
-->
<VTKFile type="UnstructuredGrid" version="0.1" byte_order="LittleEndian">
<UnstructuredGrid>
<Piece NumberOfPoints="15504" NumberOfCells="1938" >
  <Points>
    <DataArray type="Float32" NumberOfComponents="3" format="ascii">
-50 -50 0
-40 -50 0
-50 -40 0
-40 -40 0
-50 -50 10
-40 -50 10
-50 -40 10
-40 -40 10
-40 -50 0
-30 -50 0
-40 -40 0
-30 -40 0
-40 -50 10
-30 -50 10
-40 -40 10
-30 -40 10
-30 -50 0
-20 -50 0
-30 -40 0
-20 -40 0
-30 -50 10
-20 -50 10
-30 -40 10
-20 -40 10
-20 -50 0
-10 -50 0
-20 -40 0
-10 -40 0
-20 -50 10
-10 -50 10
-20 -40 10
-10 -40 10
-10 -50 0
0 -50 0
-10 -40 0
0 -40 0
-10 -50 10
0 -50 10
-10 -40 10
0 -40 10
0 -50 0
10 -50 0
0 -40 0
10 -40 0
0 -50 10
10 -50 10
0 -40 10
10 -40 10
10 -50 0
20 -50 0
10 -40 0
20 -40 0
10 -50 10
20 -50 10
10 -40 10
20 -40 10
20 -50 0
30 -50 0
20 -40 0
30 -40 0
20 -50 10
30 -50 10
20 -40 10
30 -40 10
30 -50 0
40 -50 0
30 -40 0
40 -40 0
30 -50 10
40 -50 10
30 -40 10
40 -40 10
40 -50 0
50 -50 0
40 -40 0
50 -40 0
40 -50 10
50 -50 10
40 -40 10
50 -40 10
-50 -40 0
-40 -40 0
-50 -30 0
-40 -30 0
-50 -40 10
-40 -40 10
-50 -30 10
-40 -30 10
-40 -40 0
-30 -40 0
-40 -30 0
-30 -30 0
-40 -40 10
-30 -40 10
-40 -30 10
-30 -30 10
-30 -40 0
-20 -40 0
-30 -30 0
-20 -30 0
-30 -40 10
-20 -40 10
-30 -30 10
-20 -30 10
-20 -40 0
-10 -40 0
-20 -30 0
-10 -30 0
-20 -40 10
-10 -40 10
-20 -30 10
-10 -30 10
-10 -40 0
0 -40 0
-10 -30 0
0 -30 0
-10 -40 10
0 -40 10
-10 -30 10
0 -30 10
0 -40 0
10 -40 0
0 -30 0
10 -30 0
0 -40 10
10 -40 10
0 -30 10
10 -30 10
10 -40 0
20 -40 0
10 -30 0
20 -30 0
10 -40 10
20 -40 10
10 -30 10
20 -30 10
20 -40 0
30 -40 0
20 -30 0
30 -30 0
20 -40 10
30 -40 10
20 -30 10
30 -30 10
30 -40 0
40 -40 0
30 -30 0
40 -30 0
30 -40 10
40 -40 10
30 -30 10
40 -30 10
40 -40 0
50 -40 0
40 -30 0
50 -30 0
40 -40 10
50 -40 10
40 -30 10
50 -30 10
-50 -30 0
-40 -30 0
-50 -20 0
-40 -20 0
-50 -30 10
-40 -30 10
-50 -20 10
-40 -20 10
-40 -30 0
-30 -30 0
-40 -20 0
-30 -20 0
-40 -30 10
-30 -30 10
-40 -20 10
-30 -20 10
-30 -30 0
-20 -30 0
-30 -20 0
-20 -20 0
-30 -30 10
-20 -30 10
-30 -20 10
-20 -20 10
-20 -30 0
-10 -30 0
-20 -20 0
-10 -20 0
-20 -30 10
-10 -30 10
-20 -20 10
-10 -20 10
-10 -30 0
0 -30 0
-10 -20 0
0 -20 0
-10 -30 10
0 -30 10
-10 -20 10
0 -20 10
0 -30 0
10 -30 0
0 -20 0
10 -20 0
0 -30 10
10 -30 10
0 -20 10
10 -20 10
10 -30 0
20 -30 0
10 -20 0
20 -20 0
10 -30 10
20 -30 10
10 -20 10
20 -20 10
20 -30 0
30 -30 0
20 -20 0
30 -20 0
20 -30 10
30 -30 10
20 -20 10
30 -20 10
30 -30 0
40 -30 0
30 -20 0
40 -20 0
30 -30 10
40 -30 10
30 -20 10
40 -20 10
40 -30 0
50 -30 0
40 -20 0
50 -20 0
40 -30 10
50 -30 10
40 -20 10
50 -20 10
-50 -20 0
-40 -20 0
-50 -10 0
-40 -10 0
-50 -20 10
-40 -20 10
-50 -10 10
-40 -10 10
0 -20 0
10 -20 0
0 -10 0
10 -10 0
0 -20 10
10 -20 10
0 -10 10
10 -10 10
10 -20 0
20 -20 0
10 -10 0
20 -10 0
10 -20 10
20 -20 10
10 -10 10
20 -10 10
20 -20 0
30 -20 0
20 -10 0
30 -10 0
20 -20 10
30 -20 10
20 -10 10
30 -10 10
30 -20 0
40 -20 0
30 -10 0
40 -10 0
30 -20 10
40 -20 10
30 -10 10
40 -10 10
40 -20 0
50 -20 0
40 -10 0
50 -10 0
40 -20 10
50 -20 10
40 -10 10
50 -10 10
-50 -10 0
-40 -10 0
-50 0 0
-40 0 0
-50 -10 10
-40 -10 10
-50 0 10
-40 0 10
30 -10 0
40 -10 0
30 0 0
40 0 0
30 -10 10
40 -10 10
30 0 10
40 0 10
40 -10 0
50 -10 0
40 0 0
50 0 0
40 -10 10
50 -10 10
40 0 10
50 0 10
-50 0 0
-40 0 0
-50 10 0
-40 10 0
-50 0 10
-40 0 10
-50 10 10
-40 10 10
30 0 0
40 0 0
30 10 0
40 10 0
30 0 10
40 0 10
30 10 10
40 10 10
40 0 0
50 0 0
40 10 0
50 10 0
40 0 10
50 0 10
40 10 10
50 10 10
-50 10 0
-40 10 0
-50 20 0
-40 20 0
-50 10 10
-40 10 10
-50 20 10
-40 20 10
0 10 0
10 10 0
0 20 0
10 20 0
0 10 10
10 10 10
0 20 10
10 20 10
10 10 0
20 10 0
10 20 0
20 20 0
10 10 10
20 10 10
10 20 10
20 20 10
20 10 0
30 10 0
20 20 0
30 20 0
20 10 10
30 10 10
20 20 10
30 20 10
30 10 0
40 10 0
30 20 0
40 20 0
30 10 10
40 10 10
30 20 10
40 20 10
40 10 0
50 10 0
40 20 0
50 20 0
40 10 10
50 10 10
40 20 10
50 20 10
-50 20 0
-40 20 0
-50 30 0
-40 30 0
-50 20 10
-40 20 10
-50 30 10
-40 30 10
-40 20 0
-30 20 0
-40 30 0
-30 30 0
-40 20 10
-30 20 10
-40 30 10
-30 30 10
-30 20 0
-20 20 0
-30 30 0
-20 30 0
-30 20 10
-20 20 10
-30 30 10
-20 30 10
-20 20 0
-10 20 0
-20 30 0
-10 30 0
-20 20 10
-10 20 10
-20 30 10
-10 30 10
-10 20 0
0 20 0
-10 30 0
0 30 0
-10 20 10
0 20 10
-10 30 10
0 30 10
0 20 0
10 20 0
0 30 0
10 30 0
0 20 10
10 20 10
0 30 10
10 30 10
10 20 0
20 20 0
10 30 0
20 30 0
10 20 10
20 20 10
10 30 10
20 30 10
20 20 0
30 20 0
20 30 0
30 30 0
20 20 10
30 20 10
20 30 10
30 30 10
30 20 0
40 20 0
30 30 0
40 30 0
30 20 10
40 20 10
30 30 10
40 30 10
40 20 0
50 20 0
40 30 0
50 30 0
40 20 10
50 20 10
40 30 10
50 30 10
-50 30 0
-40 30 0
-50 40 0
-40 40 0
-50 30 10
-40 30 10
-50 40 10
-40 40 10
-40 30 0
-30 30 0
-40 40 0
-30 40 0
-40 30 10
-30 30 10
-40 40 10
-30 40 10
-30 30 0
-20 30 0
-30 40 0
-20 40 0
-30 30 10
-20 30 10
-30 40 10
-20 40 10
-20 30 0
-10 30 0
-20 40 0
-10 40 0
-20 30 10
-10 30 10
-20 40 10
-10 40 10
-10 30 0
0 30 0
-10 40 0
0 40 0
-10 30 10
0 30 10
-10 40 10
0 40 10
0 30 0
10 30 0
0 40 0
10 40 0
0 30 10
10 30 10
0 40 10
10 40 10
10 30 0
20 30 0
10 40 0
20 40 0
10 30 10
20 30 10
10 40 10
20 40 10
20 30 0
30 30 0
20 40 0
30 40 0
20 30 10
30 30 10
20 40 10
30 40 10
30 30 0
40 30 0
30 40 0
40 40 0
30 30 10
40 30 10
30 40 10
40 40 10
40 30 0
50 30 0
40 40 0
50 40 0
40 30 10
50 30 10
40 40 10
50 40 10
-50 40 0
-40 40 0
-50 50 0
-40 50 0
-50 40 10
-40 40 10
-50 50 10
-40 50 10
-40 40 0
-30 40 0
-40 50 0
-30 50 0
-40 40 10
-30 40 10
-40 50 10
-30 50 10
-30 40 0
-20 40 0
-30 50 0
-20 50 0
-30 40 10
-20 40 10
-30 50 10
-20 50 10
-20 40 0
-10 40 0
-20 50 0
-10 50 0
-20 40 10
-10 40 10
-20 50 10
-10 50 10
-10 40 0
0 40 0
-10 50 0
0 50 0
-10 40 10
0 40 10
-10 50 10
0 50 10
0 40 0
10 40 0
0 50 0
10 50 0
0 40 10
10 40 10
0 50 10
10 50 10
10 40 0
20 40 0
10 50 0
20 50 0
10 40 10
20 40 10
10 50 10
20 50 10
20 40 0
30 40 0
20 50 0
30 50 0
20 40 10
30 40 10
20 50 10
30 50 10
30 40 0
40 40 0
30 50 0
40 50 0
30 40 10
40 40 10
30 50 10
40 50 10
40 40 0
50 40 0
40 50 0
50 50 0
40 40 10
50 40 10
40 50 10
50 50 10
-50 -50 10
-40 -50 10
-50 -40 10
-40 -40 10
-50 -50 20
-40 -50 20
-50 -40 20
-40 -40 20
-40 -50 10
-30 -50 10
-40 -40 10
-30 -40 10
-40 -50 20
-30 -50 20
-40 -40 20
-30 -40 20
-30 -50 10
-20 -50 10
-30 -40 10
-20 -40 10
-30 -50 20
-20 -50 20
-30 -40 20
-20 -40 20
-20 -50 10
-10 -50 10
-20 -40 10
-10 -40 10
-20 -50 20
-10 -50 20
-20 -40 20
-10 -40 20
-10 -50 10
0 -50 10
-10 -40 10
0 -40 10
-10 -50 20
0 -50 20
-10 -40 20
0 -40 20
0 -50 10
10 -50 10
0 -40 10
10 -40 10
0 -50 20
10 -50 20
0 -40 20
10 -40 20
10 -50 10
20 -50 10
10 -40 10
20 -40 10
10 -50 20
20 -50 20
10 -40 20
20 -40 20
20 -50 10
30 -50 10
20 -40 10
30 -40 10
20 -50 20
30 -50 20
20 -40 20
30 -40 20
30 -50 10
40 -50 10
30 -40 10
40 -40 10
30 -50 20
40 -50 20
30 -40 20
40 -40 20
40 -50 10
50 -50 10
40 -40 10
50 -40 10
40 -50 20
50 -50 20
40 -40 20
50 -40 20
-50 -40 10
-40 -40 10
-50 -30 10
-40 -30 10
-50 -40 20
-40 -40 20
-50 -30 20
-40 -30 20
-40 -40 10
-30 -40 10
-40 -30 10
-30 -30 10
-40 -40 20
-30 -40 20
-40 -30 20
-30 -30 20
-30 -40 10
-20 -40 10
-30 -30 10
-20 -30 10
-30 -40 20
-20 -40 20
-30 -30 20
-20 -30 20
-20 -40 10
-10 -40 10
-20 -30 10
-10 -30 10
-20 -40 20
-10 -40 20
-20 -30 20
-10 -30 20
-10 -40 10
0 -40 10
-10 -30 10
0 -30 10
-10 -40 20
0 -40 20
-10 -30 20
0 -30 20
0 -40 10
10 -40 10
0 -30 10
10 -30 10
0 -40 20
10 -40 20
0 -30 20
10 -30 20
10 -40 10
20 -40 10
10 -30 10
20 -30 10
10 -40 20
20 -40 20
10 -30 20
20 -30 20
20 -40 10
30 -40 10
20 -30 10
30 -30 10
20 -40 20
30 -40 20
20 -30 20
30 -30 20
30 -40 10
40 -40 10
30 -30 10
40 -30 10
30 -40 20
40 -40 20
30 -30 20
40 -30 20
40 -40 10
50 -40 10
40 -30 10
50 -30 10
40 -40 20
50 -40 20
40 -30 20
50 -30 20
-50 -30 10
-40 -30 10
-50 -20 10
-40 -20 10
-50 -30 20
-40 -30 20
-50 -20 20
-40 -20 20
-40 -30 10
-30 -30 10
-40 -20 10
-30 -20 10
-40 -30 20
-30 -30 20
-40 -20 20
-30 -20 20
-30 -30 10
-20 -30 10
-30 -20 10
-20 -20 10
-30 -30 20
-20 -30 20
-30 -20 20
-20 -20 20
-20 -30 10
-10 -30 10
-20 -20 10
-10 -20 10
-20 -30 20
-10 -30 20
-20 -20 20
-10 -20 20
0 -30 10
10 -30 10
0 -20 10
10 -20 10
0 -30 20
10 -30 20
0 -20 20
10 -20 20
10 -30 10
20 -30 10
10 -20 10
20 -20 10
10 -30 20
20 -30 20
10 -20 20
20 -20 20
20 -30 10
30 -30 10
20 -20 10
30 -20 10
20 -30 20
30 -30 20
20 -20 20
30 -20 20
30 -30 10
40 -30 10
30 -20 10
40 -20 10
30 -30 20
40 -30 20
30 -20 20
40 -20 20
40 -30 10
50 -30 10
40 -20 10
50 -20 10
40 -30 20
50 -30 20
40 -20 20
50 -20 20
0 -20 10
10 -20 10
0 -10 10
10 -10 10
0 -20 20
10 -20 20
0 -10 20
10 -10 20
10 -20 10
20 -20 10
10 -10 10
20 -10 10
10 -20 20
20 -20 20
10 -10 20
20 -10 20
20 -20 10
30 -20 10
20 -10 10
30 -10 10
20 -20 20
30 -20 20
20 -10 20
30 -10 20
30 -20 10
40 -20 10
30 -10 10
40 -10 10
30 -20 20
40 -20 20
30 -10 20
40 -10 20
40 -20 10
50 -20 10
40 -10 10
50 -10 10
40 -20 20
50 -20 20
40 -10 20
50 -10 20
-50 -10 10
-40 -10 10
-50 0 10
-40 0 10
-50 -10 20
-40 -10 20
-50 0 20
-40 0 20
0 -10 10
10 -10 10
0 0 10
10 0 10
0 -10 20
10 -10 20
0 0 20
10 0 20
10 -10 10
20 -10 10
10 0 10
20 0 10
10 -10 20
20 -10 20
10 0 20
20 0 20
20 -10 10
30 -10 10
20 0 10
30 0 10
20 -10 20
30 -10 20
20 0 20
30 0 20
30 -10 10
40 -10 10
30 0 10
40 0 10
30 -10 20
40 -10 20
30 0 20
40 0 20
40 -10 10
50 -10 10
40 0 10
50 0 10
40 -10 20
50 -10 20
40 0 20
50 0 20
-50 0 10
-40 0 10
-50 10 10
-40 10 10
-50 0 20
-40 0 20
-50 10 20
-40 10 20
0 0 10
10 0 10
0 10 10
10 10 10
0 0 20
10 0 20
0 10 20
10 10 20
10 0 10
20 0 10
10 10 10
20 10 10
10 0 20
20 0 20
10 10 20
20 10 20
20 0 10
30 0 10
20 10 10
30 10 10
20 0 20
30 0 20
20 10 20
30 10 20
30 0 10
40 0 10
30 10 10
40 10 10
30 0 20
40 0 20
30 10 20
40 10 20
40 0 10
50 0 10
40 10 10
50 10 10
40 0 20
50 0 20
40 10 20
50 10 20
0 10 10
10 10 10
0 20 10
10 20 10
0 10 20
10 10 20
0 20 20
10 20 20
10 10 10
20 10 10
10 20 10
20 20 10
10 10 20
20 10 20
10 20 20
20 20 20
20 10 10
30 10 10
20 20 10
30 20 10
20 10 20
30 10 20
20 20 20
30 20 20
[...]
  <PointData Scalars="scalars">
    <DataArray type="Float32" Name="u" format="ascii">
0.27079 0.295222 0.317955 0.355552 0.267324 0.289301 0.312151 0.346871 0.295222 0.31215 0.355552 0.385423 0.289301 0.306144 0.346871 0.374671 0.31215 0.318285 0.385423 0.396976 0.306144 0.312093 0.374671 0.385262 0.318285 0.311997 0.396976 0.385108 0.312093 0.306047 0.385262 0.374089 0.311997 0.294688 0.385108 0.35596 0.306047 0.289728 0.374089 0.347405 0.294688 0.27299 0.35596 0.318246 0.289728 0.269122 0.347405 0.312181 0.27299 0.248796 0.318246 0.281596 0.269122 0.245868 0.312181 0.277331 0.248796 0.225335 0.281596 0.248722 0.245868 0.223139 0.277331 0.245803 0.225335 0.203884 0.248722 0.220754 0.223139 0.202257 0.245803 0.218684 0.203884 0.184581 0.220754 0.197401 0.202257 0.183375 0.218684 0.195923 0.317955 0.355552 0.375341 0.441722 0.312151 0.346871 0.365266 0.425618 0.355552 0.385423 0.441722 0.502682 0.346871 0.374671 0.425618 0.479735 0.385423 0.396976 0.502682 0.528964 0.374671 0.385262 0.479735 0.502265 0.396976 0.385108 0.528964 0.501794 0.385262 0.374089 0.502265 0.474218 0.385108 0.35596 0.501794 0.44149 0.374089 0.347405 0.474218 0.42573 0.35596 0.318246 0.44149 0.375361 0.347405 0.312181 0.42573 0.365287 0.318246 0.281596 0.375361 0.318133 0.312181 0.277331 0.365287 0.312191 0.281596 0.248722 0.318133 0.273131 0.277331 0.245803 0.312191 0.269088 0.248722 0.220754 0.273131 0.237251 0.245803 0.218684 0.269088 0.234685 0.220754 0.197401 0.237251 0.208909 0.218684 0.195923 0.234685 0.207162 0.375341 0.441722 0.44298 0.568407 0.365266 0.425618 0.425333 0.534216 0.441722 0.502682 0.568407 0.723072 0.425618 0.479735 0.534216 0.65946 0.502682 0.528964 0.723072 0.806883 0.479735 0.502265 0.65946 0.723831 0.528964 0.501794 0.806883 0.724188 0.502265 0.474218 0.723831 0.654288 0.501794 0.44149 0.724188 0.567993 0.474218 0.42573 0.654288 0.533215 0.44149 0.375361 0.567993 0.441439 0.42573 0.365287 0.533215 0.425313 0.375361 0.318133 0.441439 0.355573 0.365287 0.312191 0.425313 0.346806 0.318133 0.273131 0.355573 0.295952 0.312191 0.269088 0.346806 0.290454 0.273131 0.237251 0.295952 0.251522 0.269088 0.234685 0.290454 0.248468 0.237251 0.208909 0.251522 0.21852 0.234685 0.207162 0.248468 0.216439 0.44298 0.568407 0.504376 0.725296 0.425333 0.534216 0.470381 0.65568 0.567993 0.441439 0.716421 0.502355 0.533215 0.425313 0.656407 0.47997 0.441439 0.355573 0.502355 0.383465 0.425313 0.346806 0.47997 0.373269 0.355573 0.295952 0.383465 0.312002 0.346806 0.290454 0.373269 0.305942 0.295952 0.251522 0.312002 0.262385 0.290454 0.248468 0.305942 0.257854 0.251522 0.21852 0.262385 0.22484 0.248468 0.216439 0.257854 0.22283 0.504376 0.725296 0.532986 0.807051 0.470381 0.65568 0.504305 0.725133 0.312002 0.262385 0.320108 0.265386 0.305942 0.257854 0.312001 0.262385 0.262385 0.22484 0.265386 0.227415 0.257854 0.22283 0.262385 0.224836 0.532986 0.807051 0.504337 0.725059 0.504305 0.725133 0.470283 0.65564 0.320108 0.265386 0.312007 0.262389 0.312001 0.262385 0.305948 0.257857 0.265386 0.227415 0.262389 0.224843 0.262385 0.224836 0.257857 0.222832 0.504337 0.725059 0.443347 0.569113 0.470283 0.65564 0.425979 0.533154 0.716451 0.50237 0.568028 0.441464 0.65643 0.479984 0.533272 0.425338 0.50237 0.383474 0.441464 0.355588 0.479984 0.373277 0.425338 0.346821 0.383474 0.312007 0.355588 0.295961 0.373277 0.305948 0.346821 0.290463 0.312007 0.262389 0.295961 0.251528 0.305948 0.257857 0.290463 0.248474 0.262389 0.224843 0.251528 0.218526 0.257857 0.222832 0.248474 0.216445 0.443347 0.569113 0.375634 0.442135 0.425979 0.533154 0.365545 0.426585 0.569113 0.725163 0.442135 0.502187 0.533154 0.654977 0.426585 0.474532 0.725163 0.806594 0.502187 0.529005 0.654977 0.724964 0.474532 0.502063 0.806594 0.724371 0.529005 0.501891 0.724964 0.654315 0.502063 0.474343 0.724371 0.568028 0.501891 0.441537 0.654315 0.533272 0.474343 0.42577 0.568028 0.441464 0.441537 0.375389 0.533272 0.425338 0.42577 0.365314 0.441464 0.355588 0.375389 0.318151 0.425338 0.346821 0.365314 0.312208 0.355588 0.295961 0.318151 0.273143 0.346821 0.290463 0.312208 0.2691 0.295961 0.251528 0.273143 0.23726 0.290463 0.248474 0.2691 0.234694 0.251528 0.218526 0.23726 0.208916 0.248474 0.216445 0.234694 0.207169 0.375634 0.442135 0.317935 0.355453 0.365545 0.426585 0.312087 0.346723 0.442135 0.502187 0.355453 0.385151 0.426585 0.474532 0.346723 0.374083 0.502187 0.529005 0.385151 0.396928 0.474532 0.502063 0.374083 0.38514 0.529005 0.501891 0.396928 0.385135 0.502063 0.474343 0.38514 0.374109 0.501891 0.441537 0.385135 0.355991 0.474343 0.42577 0.374109 0.347434 0.441537 0.375389 0.355991 0.31827 0.42577 0.365314 0.347434 0.312204 0.375389 0.318151 0.31827 0.281614 0.365314 0.312208 0.312204 0.277347 0.318151 0.273143 0.281614 0.248734 0.312208 0.2691 0.277347 0.245815 0.273143 0.23726 0.248734 0.220763 0.2691 0.234694 0.245815 0.218693 0.23726 0.208916 0.220763 0.197409 0.234694 0.207169 0.218693 0.195931 0.317935 0.355453 0.270701 0.295089 0.312087 0.346723 0.267228 0.289115 0.355453 0.385151 0.295089 0.311984 0.346723 0.374083 0.289115 0.305934 0.385151 0.396928 0.311984 0.318218 0.374083 0.38514 0.305934 0.312011 0.396928 0.385135 0.318218 0.311997 0.38514 0.374109 0.312011 0.306045 0.385135 0.355991 0.311997 0.294706 0.374109 0.347434 0.306045 0.289746 0.355991 0.31827 0.294706 0.273009 0.347434 0.312204 0.289746 0.269142 0.31827 0.281614 0.273009 0.248812 0.312204 0.277347 0.269142 0.245884 0.281614 0.248734 0.248812 0.225347 0.277347 0.245815 0.245884 0.223151 0.248734 0.220763 0.225347 0.203893 0.245815 0.218693 0.223151 0.202266 0.220763 0.197409 0.203893 0.184588 0.218693 0.195931 0.202266 0.183383 0.267324 0.289301 0.312151 0.346871 0.257 0.276778 0.295555 0.324691 0.289301 0.306144 0.346871 0.374671 0.276778 0.289326 0.324691 0.347016 0.306144 0.312093 0.374671 0.385262 0.289326 0.295361 0.347016 0.355548 0.312093 0.306047 0.385262 0.374089 0.295361 0.289244 0.355548 0.346831 0.306047 0.289728 0.374089 0.347405 0.289244 0.276947 0.346831 0.324316 0.289728 0.269122 0.347405 0.312181 0.276947 0.258366 0.324316 0.295822 0.269122 0.245868 0.312181 0.277331 0.258366 0.237642 0.295822 0.265648 0.245868 0.223139 0.277331 0.245803 0.237642 0.216919 0.265648 0.237553 0.223139 0.202257 0.245803 0.218684 0.216919 0.197588 0.237553 0.212814 0.202257 0.183375 0.218684 0.195923 0.197588 0.179892 0.212814 0.191673 0.312151 0.346871 0.365266 0.425618 0.295555 0.324691 0.339718 0.385059 0.346871 0.374671 0.425618 0.479735 0.324691 0.347016 0.385059 0.425558 0.374671 0.385262 0.479735 0.502265 0.347016 0.355548 0.425558 0.441694 0.385262 0.374089 0.502265 0.474218 0.355548 0.346831 0.441694 0.426116 0.374089 0.347405 0.474218 0.42573 0.346831 0.324316 0.426116 0.386212 0.347405 0.312181 0.42573 0.365287 0.324316 0.295822 0.386212 0.339434 0.312181 0.277331 0.365287 0.312191 0.295822 0.265648 0.339434 0.295781 0.277331 0.245803 0.312191 0.269088 0.265648 0.237553 0.295781 0.258379 0.245803 0.218684 0.269088 0.234685 0.237553 0.212814 0.258379 0.227454 0.218684 0.195923 0.234685 0.207162 0.212814 0.191673 0.227454 0.202156 0.365266 0.425618 0.425333 0.534216 0.339718 0.385059 0.388467 0.4619 0.425618 0.479735 0.534216 0.65946 0.385059 0.425558 0.4619 0.533898 0.479735 0.502265 0.65946 0.723831 0.425558 0.441694 0.533898 0.568411 0.502265 0.474218 0.723831 0.654288 0.441694 0.426116 0.568411 0.53239 0.42573 0.365287 0.533215 0.425313 0.386212 0.339434 0.461245 0.384657 0.365287 0.312191 0.425313 0.346806 0.339434 0.295781 0.384657 0.324919 0.312191 0.269088 0.346806 0.290454 0.295781 0.258379 0.324919 0.277032 0.269088 0.234685 0.290454 0.248468 0.258379 0.227454 0.277032 0.23989 0.234685 0.207162 0.248468 0.216439 0.227454 0.202156 0.23989 0.210733 0.533215 0.425313 0.656407 0.47997 0.461245 0.384657 0.533265 0.425322 0.425313 0.346806 0.47997 0.373269 0.384657 0.324919 0.425322 0.346802 0.346806 0.290454 0.373269 0.305942 0.324919 0.277032 0.346802 0.290447 0.290454 0.248468 0.305942 0.257854 0.277032 0.23989 0.290447 0.248466 0.248468 0.216439 0.257854 0.22283 0.23989 0.210733 0.248466 0.216433 0.470381 0.65568 0.504305 0.725133 0.42589 0.533296 0.443232 0.569136 0.656407 0.47997 0.716484 0.502367 0.533265 0.425322 0.568052 0.441468 0.47997 0.373269 0.502367 0.383467 0.425322 0.346802 0.441468 0.35557 0.373269 0.305942 0.383467 0.312001 0.346802 0.290447 0.35557 0.295945 0.305942 0.257854 0.312001 0.262385 0.290447 0.248466 0.295945 0.251519 0.257854 0.22283 0.262385 0.224836 0.248466 0.216433 0.251519 0.218511 0.504305 0.725133 0.470283 0.65564 0.443232 0.569136 0.425917 0.533179 0.716484 0.502367 0.65643 0.479984 0.568052 0.441468 0.533288 0.425335 0.502367 0.383467 0.479984 0.373277 0.441468 0.35557 0.425335 0.346809 0.383467 0.312001 0.373277 0.305948 0.35557 0.295945 0.346809 0.290452 0.312001 0.262385 0.305948 0.257857 0.295945 0.251519 0.290452 0.248469 0.262385 0.224836 0.257857 0.222832 0.251519 0.218511 0.248469 0.216436 0.65643 0.479984 0.533272 0.425338 0.533288 0.425335 0.461281 0.384678 0.479984 0.373277 0.425338 0.346821 0.425335 0.346809 0.384678 0.324932 0.373277 0.305948 0.346821 0.290463 0.346809 0.290452 0.324932 0.277041 0.305948 0.257857 0.290463 0.248474 0.290452 0.248469 0.277041 0.239896 0.257857 0.222832 0.248474 0.216445 0.248469 0.216436 0.239896 0.210738 0.425979 0.533154 0.365545 0.426585 0.388668 0.462085 0.339556 0.386789 0.654977 0.724964 0.474532 0.502063 0.532802 0.568761 0.4264 0.441904 0.724964 0.654315 0.502063 0.474343 0.568761 0.532484 0.441904 0.426207 0.533272 0.425338 0.42577 0.365314 0.461281 0.384678 0.386252 0.339458 0.425338 0.346821 0.365314 0.312208 0.384678 0.324932 0.339458 0.295796 0.346821 0.290463 0.312208 0.2691 0.324932 0.277041 0.295796 0.258389 0.290463 0.248474 0.2691 0.234694 0.277041 0.239896 0.258389 0.227462 0.248474 0.216445 0.234694 0.207169 0.239896 0.210738 0.227462 0.202163 0.365545 0.426585 0.312087 0.346723 0.339556 0.386789 0.295682 0.324258 0.426585 0.474532 0.346723 0.374083 0.386789 0.4264 0.324258 0.346873 0.474532 0.502063 0.374083 0.38514 0.4264 0.441904 0.346873 0.355516 0.502063 0.474343 0.38514 0.374109 0.441904 0.426207 0.355516 0.346856 0.474343 0.42577 0.374109 0.347434 0.426207 0.386252 0.346856 0.324345 0.42577 0.365314 0.347434 0.312204 0.386252 0.339458 0.324345 0.295843 0.365314 0.312208 0.312204 0.277347 0.339458 0.295796 0.295843 0.265663 0.312208 0.2691 0.277347 0.245815 0.295796 0.258389 0.265663 0.237564 0.2691 0.234694 0.245815 0.218693 0.258389 0.227462 0.237564 0.212822 0.234694 0.207169 0.218693 0.195931 0.227462 0.202163 0.212822 0.191681 0.312087 0.346723 0.267228 0.289115 0.295682 0.324258 0.256863 0.276714 0.346723 0.374083 0.289115 0.305934 0.324258 0.346873 0.276714 0.28917 0.374083 0.38514 0.305934 0.312011 0.346873 0.355516 0.28917 0.295312 0.38514 0.374109 0.312011 0.306045 0.355516 0.346856 0.295312 0.289247 0.374109 0.347434 0.306045 0.289746 0.346856 0.324345 0.289247 0.276966 0.347434 0.312204 0.289746 0.269142 0.324345 0.295843 0.276966 0.258384 0.312204 0.277347 0.269142 0.245884 0.295843 0.265663 0.258384 0.237656 0.277347 0.245815 0.245884 0.223151 0.265663 0.237564 0.237656 0.21693 0.245815 0.218693 0.223151 0.202266 0.237564 0.212822 0.21693 0.197596 0.218693 0.195931 0.202266 0.183383 0.212822 0.191681 0.197596 0.1799 0.257 0.276778 0.295555 0.324691 0.242021 0.258132 0.273168 0.295582 0.276778 0.289326 0.324691 0.347016 0.258132 0.268927 0.295582 0.312088 0.289326 0.295361 0.347016 0.355548 0.268927 0.272752 0.312088 0.318155 0.295361 0.289244 0.355548 0.346831 0.272752 0.268937 0.318155 0.312064 0.289244 0.276947 0.346831 0.324316 0.268937 0.258253 0.312064 0.295768 0.276947 0.258366 0.324316 0.295822 0.258253 0.243075 0.295768 0.273349 0.258366 0.237642 0.295822 0.265648 0.243075 0.225525 0.273349 0.249024 0.237642 0.216919 0.265648 0.237553 0.225525 0.20758 0.249024 0.22544 0.216919 0.197588 0.237553 0.212814 0.20758 0.190453 0.22544 0.203976 0.197588 0.179892 0.212814 0.191673 0.190453 0.174486 0.203976 0.18515 0.295555 0.324691 0.339718 0.385059 0.273168 0.295582 0.307105 0.33955 0.324691 0.347016 0.385059 0.425558 0.295582 0.312088 0.33955 0.365512 0.347016 0.355548 0.425558 0.441694 0.312088 0.318155 0.365512 0.37558 0.355548 0.346831 0.441694 0.426116 0.318155 0.312064 0.37558 0.365413 0.346831 0.324316 0.426116 0.386212 0.312064 0.295768 0.365413 0.33925 0.324316 0.295822 0.386212 0.339434 0.295768 0.273349 0.33925 0.30683 0.295822 0.265648 0.339434 0.295781 0.273349 0.249024 0.30683 0.273343 0.265648 0.237553 0.295781 0.258379 0.249024 0.22544 0.273343 0.243011 0.237553 0.212814 0.258379 0.227454 0.22544 0.203976 0.243011 0.216764 0.212814 0.191673 0.227454 0.202156 0.203976 0.18515 0.216764 0.194553 0.339718 0.385059 0.388467 0.4619 0.307105 0.33955 0.339462 0.386905 0.385059 0.425558 0.4619 0.533898 0.33955 0.365512 0.386905 0.42601 0.425558 0.441694 0.533898 0.568411 0.365512 0.37558 0.42601 0.441718 0.441694 0.426116 0.568411 0.53239 0.37558 0.365413 0.441718 0.426084 0.426116 0.386212 0.53239 0.461245 0.365413 0.33925 0.426084 0.386148 0.386212 0.339434 0.461245 0.384657 0.33925 0.30683 0.386148 0.339387 0.339434 0.295781 0.384657 0.324919 0.30683 0.273343 0.339387 0.295747 0.295781 0.258379 0.324919 0.277032 0.273343 0.243011 0.295747 0.258364 0.258379 0.227454 0.277032 0.23989 0.243011 0.216764 0.258364 0.227456 0.227454 0.202156 0.23989 0.210733 0.216764 0.194553 0.227456 0.202164 0.388467 0.4619 0.42589 0.533296 0.339462 0.386905 0.365447 0.426568 0.533898 0.568411 0.655127 0.725183 0.42601 0.441718 0.474586 0.502005 0.568411 0.53239 0.725183 0.654323 0.441718 0.426084 0.502005 0.474263 0.461245 0.384657 0.533265 0.425322 0.386148 0.339387 0.425685 0.365291 0.384657 0.324919 0.425322 0.346802 0.339387 0.295747 0.365291 0.312141 0.324919 0.277032 0.346802 0.290447 0.295747 0.258364 0.312141 0.269067 0.277032 0.23989 0.290447 0.248466 0.258364 0.227456 0.269067 0.234688 0.23989 0.210733 0.248466 0.216433 0.227456 0.202164 0.234688 0.207166 0.42589 0.533296 0.443232 0.569136 0.365447 0.426568 0.375498 0.442094 0.533296 0.655127 0.569136 0.725362 0.426568 0.474586 0.442094 0.502165 0.655127 0.725183 0.725362 0.80687 0.474586 0.502005 0.502165 0.528968 0.725183 0.654323 0.80687 0.724521 0.502005 0.474263 0.528968 0.501847 0.654323 0.533265 0.724521 0.568052 0.474263 0.425685 0.501847 0.441482 0.533265 0.425322 0.568052 0.441468 0.425685 0.365291 0.441482 0.375481 0.425322 0.346802 0.441468 0.35557 0.365291 0.312141 0.375481 0.318067 0.346802 0.290447 0.35557 0.295945 0.312141 0.269067 0.318067 0.273112 0.290447 0.248466 0.295945 0.251519 0.269067 0.234688 0.273112 0.237253 0.248466 0.216433 0.251519 0.218511 0.234688 0.207166 0.237253 0.208911 0.443232 0.569136 0.425917 0.533179 0.375498 0.442094 0.365482 0.426589 0.569136 0.725362 0.533179 0.655052 0.442094 0.502165 0.426589 0.474524 0.725362 0.80687 0.655052 0.725076 0.502165 0.528968 0.474524 0.502008 0.80687 0.724521 0.725076 0.654371 0.528968 0.501847 0.502008 0.474284 0.724521 0.568052 0.654371 0.533288 0.501847 0.441482 0.474284 0.425704 0.568052 0.441468 0.533288 0.425335 0.441482 0.375481 0.425704 0.365301 0.441468 0.35557 0.425335 0.346809 0.375481 0.318067 0.365301 0.312147 0.35557 0.295945 0.346809 0.290452 0.318067 0.273112 0.312147 0.269071 0.295945 0.251519 0.290452 0.248469 0.273112 0.237253 0.269071 0.234691 0.251519 0.218511 0.248469 0.216436 0.237253 0.208911 0.234691 0.207169 0.425917 0.533179 0.388668 0.462085 0.365482 0.426589 0.339586 0.387033 0.655052 0.725076 0.532802 0.568761 0.474524 0.502008 0.426387 0.441843 0.725076 0.654371 0.568761 0.532484 0.502008 0.474284 0.441843 0.426136 0.533288 0.425335 0.461281 0.384678 0.425704 0.365301 0.386178 0.339404 0.425335 0.346809 0.384678 0.324932 0.365301 0.312147 0.339404 0.295758 0.346809 0.290452 0.324932 0.277041 0.312147 0.269071 0.295758 0.258372 0.290452 0.248469 0.277041 0.239896 0.269071 0.234691 0.258372 0.227462 0.248469 0.216436 0.239896 0.210738 0.234691 0.207169 0.227462 0.202169 0.388668 0.462085 0.339556 0.386789 0.339586 0.387033 0.307362 0.339497 0.462085 0.532802 0.386789 0.4264 0.387033 0.426387 0.339497 0.365659 0.532802 0.568761 0.4264 0.441904 0.426387 0.441843 0.365659 0.375668 0.568761 0.532484 0.441904 0.426207 0.441843 0.426136 0.375668 0.365463 0.532484 0.461281 0.426207 0.386252 0.426136 0.386178 0.365463 0.339282 0.461281 0.384678 0.386252 0.339458 0.386178 0.339404 0.339282 0.30685 0.384678 0.324932 0.339458 0.295796 0.339404 0.295758 0.30685 0.273357 0.324932 0.277041 0.295796 0.258389 0.295758 0.258372 0.273357 0.243021 0.277041 0.239896 0.258389 0.227462 0.258372 0.227462 0.243021 0.216771 0.239896 0.210738 0.227462 0.202163 0.227462 0.202169 0.216771 0.194559 0.339556 0.386789 0.295682 0.324258 0.307362 0.339497 0.273194 0.295669 0.386789 0.4264 0.324258 0.346873 0.339497 0.365659 0.295669 0.312073 0.4264 0.441904 0.346873 0.355516 0.365659 0.375668 0.312073 0.318175 0.441904 0.426207 0.355516 0.346856 0.375668 0.365463 0.318175 0.312092 0.426207 0.386252 0.346856 0.324345 0.365463 0.339282 0.312092 0.295792 0.386252 0.339458 0.324345 0.295843 0.339282 0.30685 0.295792 0.273368 0.339458 0.295796 0.295843 0.265663 0.30685 0.273357 0.273368 0.249038 0.295796 0.258389 0.265663 0.237564 0.273357 0.243021 0.249038 0.22545 0.258389 0.227462 0.237564 0.212822 0.243021 0.216771 0.22545 0.203984 0.227462 0.202163 0.212822 0.191681 0.216771 0.194559 0.203984 0.185157 0.295682 0.324258 0.256863 0.276714 0.273194 0.295669 0.242011 0.258074 0.324258 0.346873 0.276714 0.28917 0.295669 0.312073 0.258074 0.268899 0.346873 0.355516 0.28917 0.295312 0.312073 0.318175 0.268899 0.272742 0.355516 0.346856 0.295312 0.289247 0.318175 0.312092 0.272742 0.268951 0.346856 0.324345 0.289247 0.276966 0.312092 0.295792 0.268951 0.258272 0.324345 0.295843 0.276966 0.258384 0.295792 0.273368 0.258272 0.243091 0.295843 0.265663 0.258384 0.237656 0.273368 0.249038 0.243091 0.225537 0.265663 0.237564 0.237656 0.21693 0.249038 0.22545 0.225537 0.20759 0.237564 0.212822 0.21693 0.197596 0.22545 0.203984 0.20759 0.190461 0.212822 0.191681 0.197596 0.1799 0.203984 0.185157 0.190461 0.174493 0.242021 0.258132 0.273168 0.295582 0.224665 0.237348 0.248783 0.265373 0.258132 0.268927 0.295582 0.312088 0.237348 0.245647 0.265373 0.277154 0.268927 0.272752 0.312088 0.318155 0.245647 0.248614 0.277154 0.281428 0.272752 0.268937 0.318155 0.312064 0.248614 0.245709 0.281428 0.277198 0.268937 0.258253 0.312064 0.295768 0.245709 0.237539 0.277198 0.265532 0.258253 0.243075 0.295768 0.273349 0.237539 0.225474 0.265532 0.248971 0.243075 0.225525 0.273349 0.249024 0.225474 0.211236 0.248971 0.230153 0.225525 0.20758 0.249024 0.22544 0.211236 0.196271 0.230153 0.211164 0.20758 0.190453 0.22544 0.203976 0.196271 0.181614 0.211164 0.193229 0.190453 0.174486 0.203976 0.18515 0.181614 0.167643 0.193229 0.177011 0.273168 0.295582 0.307105 0.33955 0.248783 0.265373 0.273135 0.295584 0.295582 0.312088 0.33955 0.365512 0.265373 0.277154 0.295584 0.311782 0.312088 0.318155 0.365512 0.37558 0.277154 0.281428 0.311782 0.317898 0.318155 0.312064 0.37558 0.365413 0.281428 0.277198 0.317898 0.311938 0.312064 0.295768 0.365413 0.33925 0.277198 0.265532 0.311938 0.295696 0.295768 0.273349 0.33925 0.30683 0.265532 0.248971 0.295696 0.273282 0.273349 0.249024 0.30683 0.273343 0.248971 0.230153 0.273282 0.24896 0.249024 0.22544 0.273343 0.243011 0.230153 0.211164 0.24896 0.225402 0.22544 0.203976 0.243011 0.216764 0.211164 0.193229 0.225402 0.204005 0.203976 0.18515 0.216764 0.194553 0.193229 0.177011 0.204005 0.185185 0.307105 0.33955 0.339462 0.386905 0.273135 0.295584 0.295394 0.323225 0.33955 0.365512 0.386905 0.42601 0.295584 0.311782 0.323225 0.346664 0.365512 0.37558 0.42601 0.441718 0.311782 0.317898 0.346664 0.355265 0.37558 0.365413 0.441718 0.426084 0.317898 0.311938 0.355265 0.346438 0.365413 0.33925 0.426084 0.386148 0.311938 0.295696 0.346438 0.32427 0.33925 0.30683 0.386148 0.339387 0.295696 0.273282 0.32427 0.295679 0.30683 0.273343 0.339387 0.295747 0.273282 0.2489