<?xml version="1.0" ?> 
<!-- 
# vtk DataFile Version 3.0
#This file was generated by the deal.II library on 16:47:58 at 2019/11/27
-->
<VTKFile type="UnstructuredGrid" version="0.1" byte_order="LittleEndian">
<UnstructuredGrid>
<Piece NumberOfPoints="56104" NumberOfCells="7013" >
  <Points>
    <DataArray type="Float32" NumberOfComponents="3" format="ascii">
-50 -50 0
-40 -50 0
-50 -40 0
-40 -40 0
-50 -50 10
-40 -50 10
-50 -40 10
-40 -40 10
-40 -50 0
-30 -50 0
-40 -40 0
-30 -40 0
-40 -50 10
-30 -50 10
-40 -40 10
-30 -40 10
-30 -50 0
-20 -50 0
-30 -40 0
-20 -40 0
-30 -50 10
-20 -50 10
-30 -40 10
-20 -40 10
-20 -50 0
-10 -50 0
-20 -40 0
-10 -40 0
-20 -50 10
-10 -50 10
-20 -40 10
-10 -40 10
-10 -50 0
0 -50 0
-10 -40 0
0 -40 0
-10 -50 10
0 -50 10
-10 -40 10
0 -40 10
0 -50 0
10 -50 0
0 -40 0
10 -40 0
0 -50 10
10 -50 10
0 -40 10
10 -40 10
10 -50 0
20 -50 0
10 -40 0
20 -40 0
10 -50 10
20 -50 10
10 -40 10
20 -40 10
20 -50 0
30 -50 0
20 -40 0
30 -40 0
20 -50 10
30 -50 10
20 -40 10
30 -40 10
30 -50 0
40 -50 0
30 -40 0
40 -40 0
30 -50 10
40 -50 10
30 -40 10
40 -40 10
40 -50 0
50 -50 0
40 -40 0
50 -40 0
40 -50 10
50 -50 10
40 -40 10
50 -40 10
-50 -40 0
-40 -40 0
-50 -30 0
-40 -30 0
-50 -40 10
-40 -40 10
-50 -30 10
-40 -30 10
-40 -40 0
-30 -40 0
-40 -30 0
-30 -30 0
-40 -40 10
-30 -40 10
-40 -30 10
-30 -30 10
-30 -40 0
-20 -40 0
-30 -30 0
-20 -30 0
-30 -40 10
-20 -40 10
-30 -30 10
-20 -30 10
-20 -40 0
-10 -40 0
-20 -30 0
-10 -30 0
-20 -40 10
-10 -40 10
-20 -30 10
-10 -30 10
-10 -40 0
0 -40 0
-10 -30 0
0 -30 0
-10 -40 10
0 -40 10
-10 -30 10
0 -30 10
0 -40 0
10 -40 0
0 -30 0
10 -30 0
0 -40 10
10 -40 10
0 -30 10
10 -30 10
10 -40 0
20 -40 0
10 -30 0
20 -30 0
10 -40 10
20 -40 10
10 -30 10
20 -30 10
20 -40 0
30 -40 0
20 -30 0
30 -30 0
20 -40 10
30 -40 10
20 -30 10
30 -30 10
30 -40 0
40 -40 0
30 -30 0
40 -30 0
30 -40 10
40 -40 10
30 -30 10
40 -30 10
40 -40 0
50 -40 0
40 -30 0
50 -30 0
40 -40 10
50 -40 10
40 -30 10
50 -30 10
-10 -30 0
0 -30 0
-10 -20 0
0 -20 0
-10 -30 10
0 -30 10
-10 -20 10
0 -20 10
0 -30 0
10 -30 0
0 -20 0
10 -20 0
0 -30 10
10 -30 10
0 -20 10
10 -20 10
10 -30 0
20 -30 0
10 -20 0
20 -20 0
10 -30 10
20 -30 10
10 -20 10
20 -20 10
20 -30 0
30 -30 0
20 -20 0
30 -20 0
20 -30 10
30 -30 10
20 -20 10
30 -20 10
30 -30 0
40 -30 0
30 -20 0
40 -20 0
30 -30 10
40 -30 10
30 -20 10
40 -20 10
40 -30 0
50 -30 0
40 -20 0
50 -20 0
40 -30 10
50 -30 10
40 -20 10
50 -20 10
0 -20 0
10 -20 0
0 -10 0
10 -10 0
0 -20 10
10 -20 10
0 -10 10
10 -10 10
10 -20 0
20 -20 0
10 -10 0
20 -10 0
10 -20 10
20 -20 10
10 -10 10
20 -10 10
20 -20 0
30 -20 0
20 -10 0
30 -10 0
20 -20 10
30 -20 10
20 -10 10
30 -10 10
30 -20 0
40 -20 0
30 -10 0
40 -10 0
30 -20 10
40 -20 10
30 -10 10
40 -10 10
40 -20 0
50 -20 0
40 -10 0
50 -10 0
40 -20 10
50 -20 10
40 -10 10
50 -10 10
10 -10 0
20 -10 0
10 0 0
20 0 0
10 -10 10
20 -10 10
10 0 10
20 0 10
20 -10 0
30 -10 0
20 0 0
30 0 0
20 -10 10
30 -10 10
20 0 10
30 0 10
30 -10 0
40 -10 0
30 0 0
40 0 0
30 -10 10
40 -10 10
30 0 10
40 0 10
40 -10 0
50 -10 0
40 0 0
50 0 0
40 -10 10
50 -10 10
40 0 10
50 0 10
10 0 0
20 0 0
10 10 0
20 10 0
10 0 10
20 0 10
10 10 10
20 10 10
20 0 0
30 0 0
20 10 0
30 10 0
20 0 10
30 0 10
20 10 10
30 10 10
30 0 0
40 0 0
30 10 0
40 10 0
30 0 10
40 0 10
30 10 10
40 10 10
40 0 0
50 0 0
40 10 0
50 10 0
40 0 10
50 0 10
40 10 10
50 10 10
0 10 0
10 10 0
0 20 0
10 20 0
0 10 10
10 10 10
0 20 10
10 20 10
10 10 0
20 10 0
10 20 0
20 20 0
10 10 10
20 10 10
10 20 10
20 20 10
20 10 0
30 10 0
20 20 0
30 20 0
20 10 10
30 10 10
20 20 10
30 20 10
30 10 0
40 10 0
30 20 0
40 20 0
30 10 10
40 10 10
30 20 10
40 20 10
40 10 0
50 10 0
40 20 0
50 20 0
40 10 10
50 10 10
40 20 10
50 20 10
-10 20 0
0 20 0
-10 30 0
0 30 0
-10 20 10
0 20 10
-10 30 10
0 30 10
0 20 0
10 20 0
0 30 0
10 30 0
0 20 10
10 20 10
0 30 10
10 30 10
10 20 0
20 20 0
10 30 0
20 30 0
10 20 10
20 20 10
10 30 10
20 30 10
20 20 0
30 20 0
20 30 0
30 30 0
20 20 10
30 20 10
20 30 10
30 30 10
30 20 0
40 20 0
30 30 0
40 30 0
30 20 10
40 20 10
30 30 10
40 30 10
40 20 0
50 20 0
40 30 0
50 30 0
40 20 10
50 20 10
40 30 10
50 30 10
-50 30 0
-40 30 0
-50 40 0
-40 40 0
-50 30 10
-40 30 10
-50 40 10
-40 40 10
-40 30 0
-30 30 0
-40 40 0
-30 40 0
-40 30 10
-30 30 10
-40 40 10
-30 40 10
-30 30 0
-20 30 0
-30 40 0
-20 40 0
-30 30 10
-20 30 10
-30 40 10
-20 40 10
-20 30 0
-10 30 0
-20 40 0
-10 40 0
-20 30 10
-10 30 10
-20 40 10
-10 40 10
-10 30 0
0 30 0
-10 40 0
0 40 0
-10 30 10
0 30 10
-10 40 10
0 40 10
0 30 0
10 30 0
0 40 0
10 40 0
0 30 10
10 30 10
0 40 10
10 40 10
10 30 0
20 30 0
10 40 0
20 40 0
10 30 10
20 30 10
10 40 10
20 40 10
20 30 0
30 30 0
20 40 0
30 40 0
20 30 10
30 30 10
20 40 10
30 40 10
30 30 0
40 30 0
30 40 0
40 40 0
30 30 10
40 30 10
30 40 10
40 40 10
40 30 0
50 30 0
40 40 0
50 40 0
40 30 10
50 30 10
40 40 10
50 40 10
-50 40 0
-40 40 0
-50 50 0
-40 50 0
-50 40 10
-40 40 10
-50 50 10
-40 50 10
-40 40 0
-30 40 0
-40 50 0
-30 50 0
-40 40 10
-30 40 10
-40 50 10
-30 50 10
-30 40 0
-20 40 0
-30 50 0
-20 50 0
-30 40 10
-20 40 10
-30 50 10
-20 50 10
-20 40 0
-10 40 0
-20 50 0
-10 50 0
-20 40 10
-10 40 10
-20 50 10
-10 50 10
-10 40 0
0 40 0
-10 50 0
0 50 0
-10 40 10
0 40 10
-10 50 10
0 50 10
0 40 0
10 40 0
0 50 0
10 50 0
0 40 10
10 40 10
0 50 10
10 50 10
10 40 0
20 40 0
10 50 0
20 50 0
10 40 10
20 40 10
10 50 10
20 50 10
20 40 0
30 40 0
20 50 0
30 50 0
20 40 10
30 40 10
20 50 10
30 50 10
30 40 0
40 40 0
30 50 0
40 50 0
30 40 10
40 40 10
30 50 10
40 50 10
40 40 0
50 40 0
40 50 0
50 50 0
40 40 10
50 40 10
40 50 10
50 50 10
-50 -50 10
-40 -50 10
-50 -40 10
-40 -40 10
-50 -50 20
-40 -50 20
-50 -40 20
-40 -40 20
-40 -50 10
-30 -50 10
-40 -40 10
-30 -40 10
-40 -50 20
-30 -50 20
-40 -40 20
-30 -40 20
-30 -50 10
-20 -50 10
-30 -40 10
-20 -40 10
-30 -50 20
-20 -50 20
-30 -40 20
-20 -40 20
-20 -50 10
-10 -50 10
-20 -40 10
-10 -40 10
-20 -50 20
-10 -50 20
-20 -40 20
-10 -40 20
-10 -50 10
0 -50 10
-10 -40 10
0 -40 10
-10 -50 20
0 -50 20
-10 -40 20
0 -40 20
0 -50 10
10 -50 10
0 -40 10
10 -40 10
0 -50 20
10 -50 20
0 -40 20
10 -40 20
10 -50 10
20 -50 10
10 -40 10
20 -40 10
10 -50 20
20 -50 20
10 -40 20
20 -40 20
20 -50 10
30 -50 10
20 -40 10
30 -40 10
20 -50 20
30 -50 20
20 -40 20
30 -40 20
30 -50 10
40 -50 10
30 -40 10
40 -40 10
30 -50 20
40 -50 20
30 -40 20
40 -40 20
40 -50 10
50 -50 10
40 -40 10
50 -40 10
40 -50 20
50 -50 20
40 -40 20
50 -40 20
-50 -40 10
-40 -40 10
-50 -30 10
-40 -30 10
-50 -40 20
-40 -40 20
-50 -30 20
-40 -30 20
-40 -40 10
-30 -40 10
-40 -30 10
-30 -30 10
-40 -40 20
-30 -40 20
-40 -30 20
-30 -30 20
-20 -40 10
-10 -40 10
-20 -30 10
-10 -30 10
-20 -40 20
-10 -40 20
-20 -30 20
-10 -30 20
-10 -40 10
0 -40 10
-10 -30 10
0 -30 10
-10 -40 20
0 -40 20
-10 -30 20
0 -30 20
0 -40 10
10 -40 10
0 -30 10
10 -30 10
0 -40 20
10 -40 20
0 -30 20
10 -30 20
10 -40 10
20 -40 10
10 -30 10
20 -30 10
10 -40 20
20 -40 20
10 -30 20
20 -30 20
20 -40 10
30 -40 10
20 -30 10
30 -30 10
20 -40 20
30 -40 20
20 -30 20
30 -30 20
30 -40 10
40 -40 10
30 -30 10
40 -30 10
30 -40 20
40 -40 20
30 -30 20
40 -30 20
40 -40 10
50 -40 10
40 -30 10
50 -30 10
40 -40 20
50 -40 20
40 -30 20
50 -30 20
0 -30 10
10 -30 10
0 -20 10
10 -20 10
0 -30 20
10 -30 20
0 -20 20
10 -20 20
10 -30 10
20 -30 10
10 -20 10
20 -20 10
10 -30 20
20 -30 20
10 -20 20
20 -20 20
20 -30 10
30 -30 10
20 -20 10
30 -20 10
20 -30 20
30 -30 20
20 -20 20
30 -20 20
30 -30 10
40 -30 10
30 -20 10
40 -20 10
30 -30 20
40 -30 20
30 -20 20
40 -20 20
40 -30 10
50 -30 10
40 -20 10
50 -20 10
40 -30 20
50 -30 20
40 -20 20
50 -20 20
0 -20 10
10 -20 10
0 -10 10
10 -10 10
0 -20 20
10 -20 20
0 -10 20
10 -10 20
10 -20 10
20 -20 10
10 -10 10
20 -10 10
10 -20 20
20 -20 20
10 -10 20
20 -10 20
20 -20 10
30 -20 10
20 -10 10
30 -10 10
20 -20 20
30 -20 20
20 -10 20
30 -10 20
30 -20 10
40 -20 10
30 -10 10
40 -10 10
30 -20 20
40 -20 20
30 -10 20
40 -10 20
40 -20 10
50 -20 10
40 -10 10
50 -10 10
40 -20 20
50 -20 20
40 -10 20
50 -10 20
0 -10 10
10 -10 10
0 0 10
10 0 10
0 -10 20
10 -10 20
0 0 20
10 0 20
10 -10 10
20 -10 10
10 0 10
20 0 10
10 -10 20
20 -10 20
10 0 20
20 0 20
20 -10 10
30 -10 10
20 0 10
30 0 10
20 -10 20
30 -10 20
20 0 20
30 0 20
30 -10 10
40 -10 10
30 0 10
40 0 10
30 -10 20
40 -10 20
30 0 20
40 0 20
40 -10 10
50 -10 10
40 0 10
50 0 10
40 -10 20
50 -10 20
40 0 20
50 0 20
0 0 10
10 0 10
0 10 10
10 10 10
0 0 20
10 0 20
0 10 20
10 10 20
10 0 10
20 0 10
10 10 10
20 10 10
10 0 20
20 0 20
10 10 20
20 10 20
20 0 10
30 0 10
20 10 10
30 10 10
20 0 20
30 0 20
20 10 20
30 10 20
30 0 10
40 0 10
30 10 10
40 10 10
30 0 20
40 0 20
30 10 20
40 10 20
40 0 10
50 0 10
40 10 10
50 10 10
40 0 20
50 0 20
40 10 20
50 10 20
0 10 10
10 10 10
0 20 10
10 20 10
0 10 20
10 10 20
0 20 20
10 20 20
10 10 10
20 10 10
10 20 10
20 20 10
10 10 20
20 10 20
10 20 20
20 20 20
20 10 10
30 10 10
20 20 10
30 20 10
20 10 20
30 10 20
20 20 20
30 20 20
30 10 10
40 10 10
30 20 10
40 20 10
30 10 20
40 10 20
30 20 20
40 20 20
40 10 10
50 10 10
40 20 10
50 20 10
40 10 20
50 10 20
40 20 20
50 20 20
0 20 10
10 20 10
0 30 10
10 30 10
0 20 20
10 20 20
0 30 20
10 30 20
10 20 10
20 20 10
10 30 10
20 30 10
10 20 20
20 20 20
10 30 20
20 30 20
20 20 10
30 20 10
20 30 10
30 30 10
20 20 20
30 20 20
20 30 20
30 30 20
30 20 10
40 20 10
30 30 10
40 30 10
30 20 20
40 20 20
30 30 20
40 30 20
40 20 10
50 20 10
40 30 10
50 30 10
40 20 20
50 20 20
40 30 20
50 30 20
-50 30 10
-40 30 10
-50 40 10
-40 40 10
-50 30 20
-40 30 20
-50 40 20
-40 40 20
-40 30 10
-30 30 10
-40 40 10
-30 40 10
-40 30 20
-30 30 20
-40 40 20
-30 40 20
-20 30 10
-10 30 10
-20 40 10
-10 40 10
-20 30 20
-10 30 20
-20 40 20
-10 40 20
-10 30 10
0 30 10
-10 40 10
0 40 10
-10 30 20
0 30 20
-10 40 20
0 40 20
0 30 10
10 30 10
0 40 10
10 40 10
0 30 20
10 30 20
0 40 20
10 40 20
10 30 10
20 30 10
10 40 10
20 40 10
10 30 20
20 30 20
10 40 20
20 40 20
20 30 10
30 30 10
20 40 10
30 40 10
20 30 20
30 30 20
20 40 20
30 40 20
30 30 10
40 30 10
30 40 10
40 40 10
30 30 20
40 30 20
30 40 20
40 40 20
40 30 10
50 30 10
40 40 10
50 40 10
40 30 20
50 30 20
40 40 20
50 40 20
-50 40 10
-40 40 10
-50 50 10
-40 50 10
-50 40 20
-40 40 20
-50 50 20
-40 50 20
-40 40 10
-30 40 10
-40 50 10
[...]
  <PointData Scalars="scalars">
    <DataArray type="Float32" Name="u" format="ascii">
0.302984 0.316882 0.372051 0.39474 0.297617 0.310701 0.36232 0.383152 0.316882 0.317176 0.39474 0.394821 0.310701 0.310982 0.383152 0.383183 0.317176 0.305252 0.394821 0.372738 0.310982 0.29967 0.383183 0.362878 0.305252 0.284463 0.372738 0.337772 0.29967 0.280008 0.362878 0.330518 0.284463 0.261093 0.337772 0.2996 0.280008 0.257667 0.330518 0.294622 0.261093 0.236925 0.2996 0.26464 0.257667 0.234395 0.294622 0.261063 0.236925 0.214388 0.26464 0.234183 0.234395 0.212491 0.261063 0.23174 0.214388 0.194219 0.234183 0.208616 0.212491 0.19281 0.23174 0.206864 0.194219 0.176581 0.208616 0.187206 0.19281 0.175518 0.206864 0.185941 0.176581 0.161055 0.187206 0.16935 0.175518 0.160251 0.185941 0.168413 0.372051 0.39474 0.476332 0.523858 0.36232 0.383152 0.458235 0.498916 0.39474 0.394821 0.523858 0.523622 0.383152 0.383183 0.498916 0.497152 0.394821 0.372738 0.523622 0.477227 0.383183 0.362878 0.497152 0.456706 0.372738 0.337772 0.477227 0.408952 0.362878 0.330518 0.456706 0.395867 0.337772 0.2996 0.408952 0.345911 0.330518 0.294622 0.395867 0.337351 0.2996 0.26464 0.345911 0.294073 0.294622 0.261063 0.337351 0.289381 0.26464 0.234183 0.294073 0.254172 0.261063 0.23174 0.289381 0.250899 0.234183 0.208616 0.254172 0.222309 0.23174 0.206864 0.250899 0.220187 0.208616 0.187206 0.222309 0.196962 0.206864 0.185941 0.220187 0.195491 0.187206 0.16935 0.196962 0.176478 0.185941 0.168413 0.195491 0.175414 0.408952 0.345911 0.500697 0.395098 0.395867 0.337351 0.474053 0.383181 0.345911 0.294073 0.395098 0.323146 0.337351 0.289381 0.383181 0.316414 0.294073 0.254172 0.323146 0.272319 0.289381 0.250899 0.316414 0.267819 0.254172 0.222309 0.272319 0.233934 0.250899 0.220187 0.267819 0.231487 0.222309 0.196962 0.233934 0.204972 0.220187 0.195491 0.231487 0.203274 0.196962 0.176478 0.204972 0.182128 0.195491 0.175414 0.203274 0.180967 0.395098 0.323146 0.43698 0.345234 0.383181 0.316414 0.42267 0.336606 0.323146 0.272319 0.345234 0.284435 0.316414 0.267819 0.336606 0.27986 0.272319 0.233934 0.284435 0.242724 0.267819 0.231487 0.27986 0.23919 0.233934 0.204972 0.242724 0.210237 0.231487 0.203274 0.23919 0.208496 0.204972 0.182128 0.210237 0.185815 0.203274 0.180967 0.208496 0.184546 0.345234 0.284435 0.357106 0.289072 0.336606 0.27986 0.345477 0.284416 0.284435 0.242724 0.289072 0.245157 0.27986 0.23919 0.284416 0.242739 0.242724 0.210237 0.245157 0.212228 0.23919 0.208496 0.242739 0.210243 0.210237 0.185815 0.212228 0.18706 0.208496 0.184546 0.210243 0.185816 0.357106 0.289072 0.345235 0.284435 0.345477 0.284416 0.336605 0.27986 0.289072 0.245157 0.284435 0.242724 0.284416 0.242739 0.27986 0.23919 0.245157 0.212228 0.242724 0.210237 0.242739 0.210243 0.23919 0.208496 0.212228 0.18706 0.210237 0.185815 0.210243 0.185816 0.208496 0.184547 0.436973 0.345235 0.395096 0.323145 0.422675 0.336605 0.383176 0.316414 0.345235 0.284435 0.323145 0.27232 0.336605 0.27986 0.316414 0.267819 0.284435 0.242724 0.27232 0.233935 0.27986 0.23919 0.267819 0.231487 0.242724 0.210237 0.233935 0.204972 0.23919 0.208496 0.231487 0.203274 0.210237 0.185815 0.204972 0.182128 0.208496 0.184547 0.203274 0.180968 0.500697 0.395096 0.408954 0.345912 0.474054 0.383176 0.395868 0.337352 0.395096 0.323145 0.345912 0.294074 0.383176 0.316414 0.337352 0.289381 0.323145 0.27232 0.294074 0.254172 0.316414 0.267819 0.289381 0.250899 0.27232 0.233935 0.254172 0.222309 0.267819 0.231487 0.250899 0.220187 0.233935 0.204972 0.222309 0.196962 0.231487 0.203274 0.220187 0.195492 0.204972 0.182128 0.196962 0.176478 0.203274 0.180968 0.195492 0.175415 0.476357 0.523862 0.372065 0.394753 0.458259 0.498932 0.362332 0.383164 0.523862 0.52361 0.394753 0.394829 0.498932 0.497155 0.383164 0.383193 0.52361 0.477226 0.394829 0.372743 0.497155 0.456715 0.383193 0.362884 0.477226 0.408954 0.372743 0.337775 0.456715 0.395868 0.362884 0.330521 0.408954 0.345912 0.337775 0.299602 0.395868 0.337352 0.330521 0.294624 0.345912 0.294074 0.299602 0.264641 0.337352 0.289381 0.294624 0.261064 0.294074 0.254172 0.264641 0.234184 0.289381 0.250899 0.261064 0.231741 0.254172 0.222309 0.234184 0.208617 0.250899 0.220187 0.231741 0.206865 0.222309 0.196962 0.208617 0.187206 0.220187 0.195492 0.206865 0.185941 0.196962 0.176478 0.187206 0.16935 0.195492 0.175415 0.185941 0.168414 0.372065 0.394753 0.302994 0.316892 0.362332 0.383164 0.297627 0.31071 0.394753 0.394829 0.316892 0.317184 0.383164 0.383193 0.31071 0.31099 0.394829 0.372743 0.317184 0.305258 0.383193 0.362884 0.31099 0.299675 0.372743 0.337775 0.305258 0.284467 0.362884 0.330521 0.299675 0.280012 0.337775 0.299602 0.284467 0.261095 0.330521 0.294624 0.280012 0.257669 0.299602 0.264641 0.261095 0.236927 0.294624 0.261064 0.257669 0.234396 0.264641 0.234184 0.236927 0.214389 0.261064 0.231741 0.234396 0.212492 0.234184 0.208617 0.214389 0.194219 0.231741 0.206865 0.212492 0.19281 0.208617 0.187206 0.194219 0.176581 0.206865 0.185941 0.19281 0.175518 0.187206 0.16935 0.176581 0.161055 0.185941 0.168414 0.175518 0.160252 0.297617 0.310701 0.36232 0.383152 0.283133 0.294142 0.33701 0.353512 0.310701 0.310982 0.383152 0.383183 0.294142 0.294332 0.353512 0.353581 0.310982 0.29967 0.383183 0.362878 0.294332 0.283787 0.353581 0.337307 0.29967 0.280008 0.362878 0.330518 0.283787 0.268269 0.337307 0.310583 0.280008 0.257667 0.330518 0.294622 0.268269 0.248191 0.310583 0.280633 0.257667 0.234395 0.294622 0.261063 0.248191 0.227215 0.280633 0.251257 0.234395 0.212491 0.261063 0.23174 0.227215 0.207097 0.251257 0.224791 0.212491 0.19281 0.23174 0.206864 0.207097 0.18875 0.224791 0.20187 0.19281 0.175518 0.206864 0.185941 0.18875 0.172439 0.20187 0.182291 0.175518 0.160251 0.185941 0.168413 0.172439 0.157909 0.182291 0.165692 0.36232 0.383152 0.458235 0.498916 0.33701 0.353512 0.411108 0.437692 0.383152 0.383183 0.498916 0.497152 0.353512 0.353581 0.437692 0.437057 0.362878 0.330518 0.456706 0.395867 0.337307 0.310583 0.409506 0.36312 0.330518 0.294622 0.395867 0.337351 0.310583 0.280633 0.36312 0.317018 0.294622 0.261063 0.337351 0.289381 0.280633 0.251257 0.317018 0.276195 0.261063 0.23174 0.289381 0.250899 0.251257 0.224791 0.276195 0.242099 0.23174 0.206864 0.250899 0.220187 0.224791 0.20187 0.242099 0.214181 0.206864 0.185941 0.220187 0.195491 0.20187 0.182291 0.214181 0.19126 0.185941 0.168413 0.195491 0.175414 0.182291 0.165692 0.19126 0.172343 0.337351 0.289381 0.383181 0.316414 0.317018 0.276195 0.354332 0.29864 0.289381 0.250899 0.316414 0.267819 0.276195 0.242099 0.29864 0.257324 0.250899 0.220187 0.267819 0.231487 0.242099 0.214181 0.257324 0.224507 0.220187 0.195491 0.231487 0.203274 0.214181 0.19126 0.224507 0.198508 0.195491 0.175414 0.203274 0.180967 0.19126 0.172343 0.198508 0.17759 0.383181 0.316414 0.42267 0.336606 0.354332 0.29864 0.383232 0.316503 0.316414 0.267819 0.336606 0.27986 0.29864 0.257324 0.316503 0.268539 0.267819 0.231487 0.27986 0.23919 0.257324 0.224507 0.268539 0.231455 0.231487 0.203274 0.23919 0.208496 0.224507 0.198508 0.231455 0.203293 0.203274 0.180967 0.208496 0.184546 0.198508 0.17759 0.203293 0.180973 0.42267 0.336606 0.436298 0.345477 0.383232 0.316503 0.395101 0.323119 0.336606 0.27986 0.345477 0.284416 0.316503 0.268539 0.323119 0.272024 0.27986 0.23919 0.284416 0.242739 0.268539 0.231455 0.272024 0.23403 0.23919 0.208496 0.242739 0.210243 0.231455 0.203293 0.23403 0.204982 0.208496 0.184546 0.210243 0.185816 0.203293 0.180973 0.204982 0.182139 0.436298 0.345477 0.422675 0.336605 0.395101 0.323119 0.383233 0.316503 0.345477 0.284416 0.336605 0.27986 0.323119 0.272024 0.316503 0.268539 0.284416 0.242739 0.27986 0.23919 0.272024 0.23403 0.268539 0.231455 0.242739 0.210243 0.23919 0.208496 0.23403 0.204982 0.231455 0.203293 0.210243 0.185816 0.208496 0.184547 0.204982 0.182139 0.203293 0.180973 0.422675 0.336605 0.383176 0.316414 0.383233 0.316503 0.354333 0.29864 0.336605 0.27986 0.316414 0.267819 0.316503 0.268539 0.29864 0.257324 0.27986 0.23919 0.267819 0.231487 0.268539 0.231455 0.257324 0.224507 0.23919 0.208496 0.231487 0.203274 0.231455 0.203293 0.224507 0.198509 0.208496 0.184547 0.203274 0.180968 0.203293 0.180973 0.198509 0.17759 0.383176 0.316414 0.337352 0.289381 0.354333 0.29864 0.317018 0.276195 0.316414 0.267819 0.289381 0.250899 0.29864 0.257324 0.276195 0.2421 0.267819 0.231487 0.250899 0.220187 0.257324 0.224507 0.2421 0.214182 0.231487 0.203274 0.220187 0.195492 0.224507 0.198509 0.214182 0.19126 0.203274 0.180968 0.195492 0.175415 0.198509 0.17759 0.19126 0.172343 0.458259 0.498932 0.362332 0.383164 0.41111 0.437697 0.337019 0.353522 0.498932 0.497155 0.383164 0.383193 0.437697 0.437129 0.353522 0.353597 0.456715 0.395868 0.362884 0.330521 0.409495 0.363124 0.337318 0.310587 0.395868 0.337352 0.330521 0.294624 0.363124 0.317018 0.310587 0.280635 0.337352 0.289381 0.294624 0.261064 0.317018 0.276195 0.280635 0.251258 0.289381 0.250899 0.261064 0.231741 0.276195 0.2421 0.251258 0.224792 0.250899 0.220187 0.231741 0.206865 0.2421 0.214182 0.224792 0.201871 0.220187 0.195492 0.206865 0.185941 0.214182 0.19126 0.201871 0.182292 0.195492 0.175415 0.185941 0.168414 0.19126 0.172343 0.182292 0.165692 0.362332 0.383164 0.297627 0.31071 0.337019 0.353522 0.283141 0.294151 0.383164 0.383193 0.31071 0.31099 0.353522 0.353597 0.294151 0.294341 0.383193 0.362884 0.31099 0.299675 0.353597 0.337318 0.294341 0.283793 0.362884 0.330521 0.299675 0.280012 0.337318 0.310587 0.283793 0.268274 0.330521 0.294624 0.280012 0.257669 0.310587 0.280635 0.268274 0.248194 0.294624 0.261064 0.257669 0.234396 0.280635 0.251258 0.248194 0.227216 0.261064 0.231741 0.234396 0.212492 0.251258 0.224792 0.227216 0.207098 0.231741 0.206865 0.212492 0.19281 0.224792 0.201871 0.207098 0.188751 0.206865 0.185941 0.19281 0.175518 0.201871 0.182292 0.188751 0.172439 0.185941 0.168414 0.175518 0.160252 0.182292 0.165692 0.172439 0.15791 0.283133 0.294142 0.33701 0.353512 0.263472 0.27159 0.304648 0.316653 0.294142 0.294332 0.353512 0.353581 0.27159 0.271772 0.316653 0.316713 0.294332 0.283787 0.353581 0.337307 0.271772 0.264444 0.316713 0.304947 0.283787 0.268269 0.337307 0.310583 0.264444 0.251147 0.304947 0.285067 0.268269 0.248191 0.310583 0.280633 0.251147 0.234497 0.285067 0.261286 0.248191 0.227215 0.280633 0.251257 0.234497 0.216558 0.261286 0.237061 0.227215 0.207097 0.251257 0.224791 0.216558 0.19893 0.237061 0.214457 0.207097 0.18875 0.224791 0.20187 0.19893 0.182505 0.214457 0.194284 0.18875 0.172439 0.20187 0.182291 0.182505 0.167641 0.194284 0.17665 0.172439 0.157909 0.182291 0.165692 0.167641 0.154217 0.17665 0.161428 0.33701 0.353512 0.411108 0.437692 0.304648 0.316653 0.354683 0.372026 0.353512 0.353581 0.437692 0.437057 0.316653 0.316713 0.372026 0.37217 0.353581 0.337307 0.437057 0.409506 0.316713 0.304947 0.37217 0.353872 0.337307 0.310583 0.409506 0.36312 0.304947 0.285067 0.353872 0.323596 0.310583 0.280633 0.36312 0.317018 0.285067 0.261286 0.323596 0.289912 0.280633 0.251257 0.317018 0.276195 0.261286 0.237061 0.289912 0.257716 0.251257 0.224791 0.276195 0.242099 0.237061 0.214457 0.257716 0.229354 0.224791 0.20187 0.242099 0.214181 0.214457 0.194284 0.229354 0.205186 0.20187 0.182291 0.214181 0.19126 0.194284 0.17665 0.205186 0.184773 0.182291 0.165692 0.19126 0.172343 0.17665 0.161428 0.184773 0.16756 0.437692 0.437057 0.550365 0.550567 0.372026 0.37217 0.437718 0.436153 0.36312 0.317018 0.421075 0.354332 0.323596 0.289912 0.363018 0.317054 0.317018 0.276195 0.354332 0.29864 0.289912 0.257716 0.317054 0.276067 0.276195 0.242099 0.29864 0.257324 0.257716 0.229354 0.276067 0.242102 0.242099 0.214181 0.257324 0.224507 0.229354 0.205186 0.242102 0.214205 0.214181 0.19126 0.224507 0.198508 0.205186 0.184773 0.214205 0.191278 0.19126 0.172343 0.198508 0.17759 0.184773 0.16756 0.191278 0.172364 0.354332 0.29864 0.383232 0.316503 0.317054 0.276067 0.337412 0.289174 0.29864 0.257324 0.316503 0.268539 0.276067 0.242102 0.289174 0.25091 0.257324 0.224507 0.268539 0.231455 0.242102 0.214205 0.25091 0.220232 0.224507 0.198508 0.231455 0.203293 0.214205 0.191278 0.220232 0.19552 0.198508 0.17759 0.203293 0.180973 0.191278 0.172364 0.19552 0.175444 0.474089 0.383232 0.500707 0.395101 0.395761 0.337412 0.409027 0.345932 0.383232 0.316503 0.395101 0.323119 0.337412 0.289174 0.345932 0.293997 0.316503 0.268539 0.323119 0.272024 0.289174 0.25091 0.293997 0.254093 0.268539 0.231455 0.272024 0.23403 0.25091 0.220232 0.254093 0.222341 0.231455 0.203293 0.23403 0.204982 0.220232 0.19552 0.222341 0.197 0.203293 0.180973 0.204982 0.182139 0.19552 0.175444 0.197 0.176509 0.500707 0.395101 0.47405 0.383233 0.409027 0.345932 0.395815 0.337408 0.395101 0.323119 0.383233 0.316503 0.345932 0.293997 0.337408 0.289174 0.323119 0.272024 0.316503 0.268539 0.293997 0.254093 0.289174 0.25091 0.272024 0.23403 0.268539 0.231455 0.254093 0.222341 0.25091 0.220232 0.23403 0.204982 0.231455 0.203293 0.222341 0.197 0.220232 0.19552 0.204982 0.182139 0.203293 0.180973 0.197 0.176509 0.19552 0.175445 0.383233 0.316503 0.354333 0.29864 0.337408 0.289174 0.31705 0.276068 0.316503 0.268539 0.29864 0.257324 0.289174 0.25091 0.276068 0.242103 0.268539 0.231455 0.257324 0.224507 0.25091 0.220232 0.242103 0.214205 0.231455 0.203293 0.224507 0.198509 0.220232 0.19552 0.214205 0.191278 0.203293 0.180973 0.198509 0.17759 0.19552 0.175445 0.191278 0.172364 0.550358 0.550386 0.437697 0.437129 0.437642 0.437054 0.372038 0.372096 0.421049 0.354333 0.363124 0.317018 0.363059 0.31705 0.323575 0.289916 0.354333 0.29864 0.317018 0.276195 0.31705 0.276068 0.289916 0.257717 0.29864 0.257324 0.276195 0.2421 0.276068 0.242103 0.257717 0.229355 0.257324 0.224507 0.2421 0.214182 0.242103 0.214205 0.229355 0.205187 0.224507 0.198509 0.214182 0.19126 0.214205 0.191278 0.205187 0.184773 0.198509 0.17759 0.19126 0.172343 0.191278 0.172364 0.184773 0.16756 0.41111 0.437697 0.337019 0.353522 0.354677 0.372038 0.304657 0.316658 0.437697 0.437129 0.353522 0.353597 0.372038 0.372096 0.316658 0.316735 0.437129 0.409495 0.353597 0.337318 0.372096 0.353974 0.316735 0.304949 0.409495 0.363124 0.337318 0.310587 0.353974 0.323575 0.304949 0.285078 0.363124 0.317018 0.310587 0.280635 0.323575 0.289916 0.285078 0.261287 0.317018 0.276195 0.280635 0.251258 0.289916 0.257717 0.261287 0.237063 0.276195 0.2421 0.251258 0.224792 0.257717 0.229355 0.237063 0.214458 0.2421 0.214182 0.224792 0.201871 0.229355 0.205187 0.214458 0.194285 0.214182 0.19126 0.201871 0.182292 0.205187 0.184773 0.194285 0.17665 0.19126 0.172343 0.182292 0.165692 0.184773 0.16756 0.17665 0.161429 0.337019 0.353522 0.283141 0.294151 0.304657 0.316658 0.263478 0.271599 0.353522 0.353597 0.294151 0.294341 0.316658 0.316735 0.271599 0.271778 0.353597 0.337318 0.294341 0.283793 0.316735 0.304949 0.271778 0.264454 0.337318 0.310587 0.283793 0.268274 0.304949 0.285078 0.264454 0.251151 0.310587 0.280635 0.268274 0.248194 0.285078 0.261287 0.251151 0.234501 0.280635 0.251258 0.248194 0.227216 0.261287 0.237063 0.234501 0.21656 0.251258 0.224792 0.227216 0.207098 0.237063 0.214458 0.21656 0.198931 0.224792 0.201871 0.207098 0.188751 0.214458 0.194285 0.198931 0.182506 0.201871 0.182292 0.188751 0.172439 0.194285 0.17665 0.182506 0.167641 0.182292 0.165692 0.172439 0.15791 0.17665 0.161429 0.167641 0.154217 0.263472 0.27159 0.304648 0.316653 0.24162 0.247819 0.272069 0.280302 0.27159 0.271772 0.316653 0.316713 0.247819 0.247917 0.280302 0.280412 0.271772 0.264444 0.316713 0.304947 0.247917 0.242259 0.280412 0.272214 0.264444 0.251147 0.304947 0.285067 0.242259 0.231942 0.272214 0.257761 0.251147 0.234497 0.285067 0.261286 0.231942 0.218586 0.257761 0.239754 0.234497 0.216558 0.261286 0.237061 0.218586 0.203827 0.239754 0.220642 0.216558 0.19893 0.237061 0.214457 0.203827 0.188928 0.220642 0.202079 0.19893 0.182505 0.214457 0.194284 0.188928 0.174695 0.202079 0.184945 0.182505 0.167641 0.194284 0.17665 0.174695 0.161533 0.184945 0.169547 0.167641 0.154217 0.17665 0.161428 0.161533 0.149441 0.169547 0.155961 0.304648 0.316653 0.354683 0.372026 0.272069 0.280302 0.30457 0.316608 0.316653 0.316713 0.372026 0.37217 0.280302 0.280412 0.316608 0.316552 0.316713 0.304947 0.37217 0.353872 0.280412 0.272214 0.316552 0.304837 0.304947 0.285067 0.353872 0.323596 0.272214 0.257761 0.304837 0.285009 0.285067 0.261286 0.323596 0.289912 0.257761 0.239754 0.285009 0.26123 0.261286 0.237061 0.289912 0.257716 0.239754 0.220642 0.26123 0.237007 0.237061 0.214457 0.257716 0.229354 0.220642 0.202079 0.237007 0.214425 0.214457 0.194284 0.229354 0.205186 0.202079 0.184945 0.214425 0.194281 0.194284 0.17665 0.205186 0.184773 0.184945 0.169547 0.194281 0.176692 0.17665 0.161428 0.184773 0.16756 0.169547 0.155961 0.176692 0.161473 0.354683 0.372026 0.411041 0.437718 0.30457 0.316608 0.337059 0.353443 0.372026 0.37217 0.437718 0.436153 0.316608 0.316552 0.353443 0.353213 0.37217 0.353872 0.436153 0.410013 0.316552 0.304837 0.353213 0.336919 0.353872 0.323596 0.410013 0.363018 0.304837 0.285009 0.336919 0.310551 0.323596 0.289912 0.363018 0.317054 0.285009 0.26123 0.310551 0.280495 0.289912 0.257716 0.317054 0.276067 0.26123 0.237007 0.280495 0.251172 0.257716 0.229354 0.276067 0.242102 0.237007 0.214425 0.251172 0.22474 0.229354 0.205186 0.242102 0.214205 0.214425 0.194281 0.22474 0.201872 0.205186 0.184773 0.214205 0.191278 0.194281 0.176692 0.201872 0.182356 0.184773 0.16756 0.191278 0.172364 0.176692 0.161473 0.182356 0.165761 0.411041 0.437718 0.458094 0.49895 0.337059 0.353443 0.362337 0.38306 0.437718 0.436153 0.49895 0.495606 0.353443 0.353213 0.38306 0.382706 0.436153 0.410013 0.495606 0.457345 0.353213 0.336919 0.382706 0.362519 0.410013 0.363018 0.457345 0.395761 0.336919 0.310551 0.362519 0.329674 0.363018 0.317054 0.395761 0.337412 0.310551 0.280495 0.329674 0.294398 0.317054 0.276067 0.337412 0.289174 0.280495 0.251172 0.294398 0.260973 0.276067 0.242102 0.289174 0.25091 0.251172 0.22474 0.260973 0.231676 0.242102 0.214205 0.25091 0.220232 0.22474 0.201872 0.231676 0.20687 0.214205 0.191278 0.220232 0.19552 0.201872 0.182356 0.20687 0.186019 0.191278 0.172364 0.19552 0.175444 0.182356 0.165761 0.186019 0.168493 0.458094 0.49895 0.476156 0.523793 0.362337 0.38306 0.37205 0.39463 0.49895 0.495606 0.523793 0.523393 0.38306 0.382706 0.39463 0.394561 0.495606 0.457345 0.523393 0.477089 0.382706 0.362519 0.394561 0.372471 0.457345 0.395761 0.477089 0.409027 0.362519 0.329674 0.372471 0.337302 0.395761 0.337412 0.409027 0.345932 0.329674 0.294398 0.337302 0.299456 0.337412 0.289174 0.345932 0.293997 0.294398 0.260973 0.299456 0.264522 0.289174 0.25091 0.293997 0.254093 0.260973 0.231676 0.264522 0.234129 0.25091 0.220232 0.254093 0.222341 0.231676 0.20687 0.234129 0.208622 0.220232 0.19552 0.222341 0.197 0.20687 0.186019 0.208622 0.187288 0.19552 0.175444 0.197 0.176509 0.186019 0.168493 0.187288 0.169433 0.476156 0.523793 0.458114 0.498856 0.37205 0.39463 0.362335 0.383053 0.523793 0.523393 0.498856 0.497017 0.39463 0.394561 0.383053 0.382963 0.523393 0.477089 0.497017 0.456652 0.394561 0.372471 0.382963 0.362588 0.477089 0.409027 0.456652 0.395815 0.372471 0.337302 0.362588 0.329673 0.409027 0.345932 0.395815 0.337408 0.337302 0.299456 0.329673 0.294398 0.345932 0.293997 0.337408 0.289174 0.299456 0.264522 0.294398 0.260974 0.293997 0.254093 0.289174 0.25091 0.264522 0.234129 0.260974 0.231676 0.254093 0.222341 0.25091 0.220232 0.234129 0.208622 0.231676 0.20687 0.222341 0.197 0.220232 0.19552 0.208622 0.187288 0.20687 0.18602 0.197 0.176509 0.19552 0.175445 0.187288 0.169433 0.18602 0.168494 0.458114 0.498856 0.411042 0.437642 0.362335 0.383053 0.337056 0.353436 0.498856 0.497017 0.437642 0.437054 0.383053 0.382963 0.353436 0.353417 0.456652 0.395815 0.409412 0.363059 0.362588 0.329673 0.336968 0.310537 0.395815 0.337408 0.363059 0.31705 0.329673 0.294398 0.310537 0.280498 0.337408 0.289174 0.31705 0.276068 0.294398 0.260974 0.280498 0.251173 0.289174 0.25091 0.276068 0.242103 0.260974 0.231676 0.251173 0.224741 0.25091 0.220232 0.242103 0.214205 0.231676 0.20687 0.224741 0.20