<?xml version="1.0" ?> 
<!-- 
# vtk DataFile Version 3.0
#This file was generated by the deal.II library on 16:47:21 at 2019/11/27
-->
<VTKFile type="UnstructuredGrid" version="0.1" byte_order="LittleEndian">
<UnstructuredGrid>
<Piece NumberOfPoints="15560" NumberOfCells="1945" >
  <Points>
    <DataArray type="Float32" NumberOfComponents="3" format="ascii">
-50 -50 0
-40 -50 0
-50 -40 0
-40 -40 0
-50 -50 10
-40 -50 10
-50 -40 10
-40 -40 10
-40 -50 0
-30 -50 0
-40 -40 0
-30 -40 0
-40 -50 10
-30 -50 10
-40 -40 10
-30 -40 10
-30 -50 0
-20 -50 0
-30 -40 0
-20 -40 0
-30 -50 10
-20 -50 10
-30 -40 10
-20 -40 10
-20 -50 0
-10 -50 0
-20 -40 0
-10 -40 0
-20 -50 10
-10 -50 10
-20 -40 10
-10 -40 10
-10 -50 0
0 -50 0
-10 -40 0
0 -40 0
-10 -50 10
0 -50 10
-10 -40 10
0 -40 10
0 -50 0
10 -50 0
0 -40 0
10 -40 0
0 -50 10
10 -50 10
0 -40 10
10 -40 10
10 -50 0
20 -50 0
10 -40 0
20 -40 0
10 -50 10
20 -50 10
10 -40 10
20 -40 10
20 -50 0
30 -50 0
20 -40 0
30 -40 0
20 -50 10
30 -50 10
20 -40 10
30 -40 10
30 -50 0
40 -50 0
30 -40 0
40 -40 0
30 -50 10
40 -50 10
30 -40 10
40 -40 10
40 -50 0
50 -50 0
40 -40 0
50 -40 0
40 -50 10
50 -50 10
40 -40 10
50 -40 10
-50 -40 0
-40 -40 0
-50 -30 0
-40 -30 0
-50 -40 10
-40 -40 10
-50 -30 10
-40 -30 10
-40 -40 0
-30 -40 0
-40 -30 0
-30 -30 0
-40 -40 10
-30 -40 10
-40 -30 10
-30 -30 10
-30 -40 0
-20 -40 0
-30 -30 0
-20 -30 0
-30 -40 10
-20 -40 10
-30 -30 10
-20 -30 10
-20 -40 0
-10 -40 0
-20 -30 0
-10 -30 0
-20 -40 10
-10 -40 10
-20 -30 10
-10 -30 10
-10 -40 0
0 -40 0
-10 -30 0
0 -30 0
-10 -40 10
0 -40 10
-10 -30 10
0 -30 10
0 -40 0
10 -40 0
0 -30 0
10 -30 0
0 -40 10
10 -40 10
0 -30 10
10 -30 10
10 -40 0
20 -40 0
10 -30 0
20 -30 0
10 -40 10
20 -40 10
10 -30 10
20 -30 10
20 -40 0
30 -40 0
20 -30 0
30 -30 0
20 -40 10
30 -40 10
20 -30 10
30 -30 10
30 -40 0
40 -40 0
30 -30 0
40 -30 0
30 -40 10
40 -40 10
30 -30 10
40 -30 10
40 -40 0
50 -40 0
40 -30 0
50 -30 0
40 -40 10
50 -40 10
40 -30 10
50 -30 10
-50 -30 0
-40 -30 0
-50 -20 0
-40 -20 0
-50 -30 10
-40 -30 10
-50 -20 10
-40 -20 10
-40 -30 0
-30 -30 0
-40 -20 0
-30 -20 0
-40 -30 10
-30 -30 10
-40 -20 10
-30 -20 10
-30 -30 0
-20 -30 0
-30 -20 0
-20 -20 0
-30 -30 10
-20 -30 10
-30 -20 10
-20 -20 10
-20 -30 0
-10 -30 0
-20 -20 0
-10 -20 0
-20 -30 10
-10 -30 10
-20 -20 10
-10 -20 10
-10 -30 0
0 -30 0
-10 -20 0
0 -20 0
-10 -30 10
0 -30 10
-10 -20 10
0 -20 10
0 -30 0
10 -30 0
0 -20 0
10 -20 0
0 -30 10
10 -30 10
0 -20 10
10 -20 10
10 -30 0
20 -30 0
10 -20 0
20 -20 0
10 -30 10
20 -30 10
10 -20 10
20 -20 10
20 -30 0
30 -30 0
20 -20 0
30 -20 0
20 -30 10
30 -30 10
20 -20 10
30 -20 10
30 -30 0
40 -30 0
30 -20 0
40 -20 0
30 -30 10
40 -30 10
30 -20 10
40 -20 10
40 -30 0
50 -30 0
40 -20 0
50 -20 0
40 -30 10
50 -30 10
40 -20 10
50 -20 10
-50 -20 0
-40 -20 0
-50 -10 0
-40 -10 0
-50 -20 10
-40 -20 10
-50 -10 10
-40 -10 10
-40 -20 0
-30 -20 0
-40 -10 0
-30 -10 0
-40 -20 10
-30 -20 10
-40 -10 10
-30 -10 10
-30 -20 0
-20 -20 0
-30 -10 0
-20 -10 0
-30 -20 10
-20 -20 10
-30 -10 10
-20 -10 10
-20 -20 0
-10 -20 0
-20 -10 0
-10 -10 0
-20 -20 10
-10 -20 10
-20 -10 10
-10 -10 10
-10 -20 0
0 -20 0
-10 -10 0
0 -10 0
-10 -20 10
0 -20 10
-10 -10 10
0 -10 10
40 -20 0
50 -20 0
40 -10 0
50 -10 0
40 -20 10
50 -20 10
40 -10 10
50 -10 10
-50 -10 0
-40 -10 0
-50 0 0
-40 0 0
-50 -10 10
-40 -10 10
-50 0 10
-40 0 10
-40 -10 0
-30 -10 0
-40 0 0
-30 0 0
-40 -10 10
-30 -10 10
-40 0 10
-30 0 10
40 -10 0
50 -10 0
40 0 0
50 0 0
40 -10 10
50 -10 10
40 0 10
50 0 10
-50 0 0
-40 0 0
-50 10 0
-40 10 0
-50 0 10
-40 0 10
-50 10 10
-40 10 10
-40 0 0
-30 0 0
-40 10 0
-30 10 0
-40 0 10
-30 0 10
-40 10 10
-30 10 10
40 0 0
50 0 0
40 10 0
50 10 0
40 0 10
50 0 10
40 10 10
50 10 10
-50 10 0
-40 10 0
-50 20 0
-40 20 0
-50 10 10
-40 10 10
-50 20 10
-40 20 10
-40 10 0
-30 10 0
-40 20 0
-30 20 0
-40 10 10
-30 10 10
-40 20 10
-30 20 10
-30 10 0
-20 10 0
-30 20 0
-20 20 0
-30 10 10
-20 10 10
-30 20 10
-20 20 10
-20 10 0
-10 10 0
-20 20 0
-10 20 0
-20 10 10
-10 10 10
-20 20 10
-10 20 10
-10 10 0
0 10 0
-10 20 0
0 20 0
-10 10 10
0 10 10
-10 20 10
0 20 10
40 10 0
50 10 0
40 20 0
50 20 0
40 10 10
50 10 10
40 20 10
50 20 10
-50 20 0
-40 20 0
-50 30 0
-40 30 0
-50 20 10
-40 20 10
-50 30 10
-40 30 10
-40 20 0
-30 20 0
-40 30 0
-30 30 0
-40 20 10
-30 20 10
-40 30 10
-30 30 10
-30 20 0
-20 20 0
-30 30 0
-20 30 0
-30 20 10
-20 20 10
-30 30 10
-20 30 10
-20 20 0
-10 20 0
-20 30 0
-10 30 0
-20 20 10
-10 20 10
-20 30 10
-10 30 10
-10 20 0
0 20 0
-10 30 0
0 30 0
-10 20 10
0 20 10
-10 30 10
0 30 10
0 20 0
10 20 0
0 30 0
10 30 0
0 20 10
10 20 10
0 30 10
10 30 10
10 20 0
20 20 0
10 30 0
20 30 0
10 20 10
20 20 10
10 30 10
20 30 10
20 20 0
30 20 0
20 30 0
30 30 0
20 20 10
30 20 10
20 30 10
30 30 10
30 20 0
40 20 0
30 30 0
40 30 0
30 20 10
40 20 10
30 30 10
40 30 10
40 20 0
50 20 0
40 30 0
50 30 0
40 20 10
50 20 10
40 30 10
50 30 10
-50 30 0
-40 30 0
-50 40 0
-40 40 0
-50 30 10
-40 30 10
-50 40 10
-40 40 10
-40 30 0
-30 30 0
-40 40 0
-30 40 0
-40 30 10
-30 30 10
-40 40 10
-30 40 10
-30 30 0
-20 30 0
-30 40 0
-20 40 0
-30 30 10
-20 30 10
-30 40 10
-20 40 10
-20 30 0
-10 30 0
-20 40 0
-10 40 0
-20 30 10
-10 30 10
-20 40 10
-10 40 10
-10 30 0
0 30 0
-10 40 0
0 40 0
-10 30 10
0 30 10
-10 40 10
0 40 10
0 30 0
10 30 0
0 40 0
10 40 0
0 30 10
10 30 10
0 40 10
10 40 10
10 30 0
20 30 0
10 40 0
20 40 0
10 30 10
20 30 10
10 40 10
20 40 10
20 30 0
30 30 0
20 40 0
30 40 0
20 30 10
30 30 10
20 40 10
30 40 10
30 30 0
40 30 0
30 40 0
40 40 0
30 30 10
40 30 10
30 40 10
40 40 10
40 30 0
50 30 0
40 40 0
50 40 0
40 30 10
50 30 10
40 40 10
50 40 10
-50 40 0
-40 40 0
-50 50 0
-40 50 0
-50 40 10
-40 40 10
-50 50 10
-40 50 10
-40 40 0
-30 40 0
-40 50 0
-30 50 0
-40 40 10
-30 40 10
-40 50 10
-30 50 10
-30 40 0
-20 40 0
-30 50 0
-20 50 0
-30 40 10
-20 40 10
-30 50 10
-20 50 10
-20 40 0
-10 40 0
-20 50 0
-10 50 0
-20 40 10
-10 40 10
-20 50 10
-10 50 10
-10 40 0
0 40 0
-10 50 0
0 50 0
-10 40 10
0 40 10
-10 50 10
0 50 10
0 40 0
10 40 0
0 50 0
10 50 0
0 40 10
10 40 10
0 50 10
10 50 10
10 40 0
20 40 0
10 50 0
20 50 0
10 40 10
20 40 10
10 50 10
20 50 10
20 40 0
30 40 0
20 50 0
30 50 0
20 40 10
30 40 10
20 50 10
30 50 10
30 40 0
40 40 0
30 50 0
40 50 0
30 40 10
40 40 10
30 50 10
40 50 10
40 40 0
50 40 0
40 50 0
50 50 0
40 40 10
50 40 10
40 50 10
50 50 10
-50 -50 10
-40 -50 10
-50 -40 10
-40 -40 10
-50 -50 20
-40 -50 20
-50 -40 20
-40 -40 20
-40 -50 10
-30 -50 10
-40 -40 10
-30 -40 10
-40 -50 20
-30 -50 20
-40 -40 20
-30 -40 20
-30 -50 10
-20 -50 10
-30 -40 10
-20 -40 10
-30 -50 20
-20 -50 20
-30 -40 20
-20 -40 20
-20 -50 10
-10 -50 10
-20 -40 10
-10 -40 10
-20 -50 20
-10 -50 20
-20 -40 20
-10 -40 20
-10 -50 10
0 -50 10
-10 -40 10
0 -40 10
-10 -50 20
0 -50 20
-10 -40 20
0 -40 20
0 -50 10
10 -50 10
0 -40 10
10 -40 10
0 -50 20
10 -50 20
0 -40 20
10 -40 20
10 -50 10
20 -50 10
10 -40 10
20 -40 10
10 -50 20
20 -50 20
10 -40 20
20 -40 20
20 -50 10
30 -50 10
20 -40 10
30 -40 10
20 -50 20
30 -50 20
20 -40 20
30 -40 20
30 -50 10
40 -50 10
30 -40 10
40 -40 10
30 -50 20
40 -50 20
30 -40 20
40 -40 20
40 -50 10
50 -50 10
40 -40 10
50 -40 10
40 -50 20
50 -50 20
40 -40 20
50 -40 20
-50 -40 10
-40 -40 10
-50 -30 10
-40 -30 10
-50 -40 20
-40 -40 20
-50 -30 20
-40 -30 20
-40 -40 10
-30 -40 10
-40 -30 10
-30 -30 10
-40 -40 20
-30 -40 20
-40 -30 20
-30 -30 20
-30 -40 10
-20 -40 10
-30 -30 10
-20 -30 10
-30 -40 20
-20 -40 20
-30 -30 20
-20 -30 20
-20 -40 10
-10 -40 10
-20 -30 10
-10 -30 10
-20 -40 20
-10 -40 20
-20 -30 20
-10 -30 20
-10 -40 10
0 -40 10
-10 -30 10
0 -30 10
-10 -40 20
0 -40 20
-10 -30 20
0 -30 20
0 -40 10
10 -40 10
0 -30 10
10 -30 10
0 -40 20
10 -40 20
0 -30 20
10 -30 20
10 -40 10
20 -40 10
10 -30 10
20 -30 10
10 -40 20
20 -40 20
10 -30 20
20 -30 20
20 -40 10
30 -40 10
20 -30 10
30 -30 10
20 -40 20
30 -40 20
20 -30 20
30 -30 20
30 -40 10
40 -40 10
30 -30 10
40 -30 10
30 -40 20
40 -40 20
30 -30 20
40 -30 20
40 -40 10
50 -40 10
40 -30 10
50 -30 10
40 -40 20
50 -40 20
40 -30 20
50 -30 20
-50 -30 10
-40 -30 10
-50 -20 10
-40 -20 10
-50 -30 20
-40 -30 20
-50 -20 20
-40 -20 20
-40 -30 10
-30 -30 10
-40 -20 10
-30 -20 10
-40 -30 20
-30 -30 20
-40 -20 20
-30 -20 20
-30 -30 10
-20 -30 10
-30 -20 10
-20 -20 10
-30 -30 20
-20 -30 20
-30 -20 20
-20 -20 20
-20 -30 10
-10 -30 10
-20 -20 10
-10 -20 10
-20 -30 20
-10 -30 20
-20 -20 20
-10 -20 20
-10 -30 10
0 -30 10
-10 -20 10
0 -20 10
-10 -30 20
0 -30 20
-10 -20 20
0 -20 20
10 -30 10
20 -30 10
10 -20 10
20 -20 10
10 -30 20
20 -30 20
10 -20 20
20 -20 20
20 -30 10
30 -30 10
20 -20 10
30 -20 10
20 -30 20
30 -30 20
20 -20 20
30 -20 20
40 -30 10
50 -30 10
40 -20 10
50 -20 10
40 -30 20
50 -30 20
40 -20 20
50 -20 20
-50 -20 10
-40 -20 10
-50 -10 10
-40 -10 10
-50 -20 20
-40 -20 20
-50 -10 20
-40 -10 20
-40 -20 10
-30 -20 10
-40 -10 10
-30 -10 10
-40 -20 20
-30 -20 20
-40 -10 20
-30 -10 20
-30 -20 10
-20 -20 10
-30 -10 10
-20 -10 10
-30 -20 20
-20 -20 20
-30 -10 20
-20 -10 20
-20 -20 10
-10 -20 10
-20 -10 10
-10 -10 10
-20 -20 20
-10 -20 20
-20 -10 20
-10 -10 20
-10 -20 10
0 -20 10
-10 -10 10
0 -10 10
-10 -20 20
0 -20 20
-10 -10 20
0 -10 20
-50 -10 10
-40 -10 10
-50 0 10
-40 0 10
-50 -10 20
-40 -10 20
-50 0 20
-40 0 20
-40 -10 10
-30 -10 10
-40 0 10
-30 0 10
-40 -10 20
-30 -10 20
-40 0 20
-30 0 20
-30 -10 10
-20 -10 10
-30 0 10
-20 0 10
-30 -10 20
-20 -10 20
-30 0 20
-20 0 20
-20 -10 10
-10 -10 10
-20 0 10
-10 0 10
-20 -10 20
-10 -10 20
-20 0 20
-10 0 20
-10 -10 10
0 -10 10
-10 0 10
0 0 10
-10 -10 20
0 -10 20
-10 0 20
0 0 20
40 -10 10
50 -10 10
40 0 10
50 0 10
40 -10 20
50 -10 20
40 0 20
50 0 20
-50 0 10
-40 0 10
-50 10 10
-40 10 10
-50 0 20
-40 0 20
-50 10 20
-40 10 20
-40 0 10
-30 0 10
-40 10 10
-30 10 10
-40 0 20
-30 0 20
-40 10 20
-30 10 20
-30 0 10
-20 0 10
-30 10 10
-20 10 10
-30 0 20
-20 0 20
-30 10 20
-20 10 20
-20 0 10
-10 0 10
-20 10 10
-10 10 10
-20 0 20
-10 0 20
-20 10 20
-10 10 20
-10 0 10
0 0 10
-10 10 10
0 10 10
-10 0 20
0 0 20
-10 10 20
0 10 20
40 0 10
50 0 10
40 10 10
50 10 10
40 0 20
50 0 20
40 10 20
50 10 20
-50 10 10
-40 10 10
-50 20 10
-40 20 10
-50 10 20
-40 10 20
-50 20 20
-40 20 20
-40 10 10
-30 10 10
-40 20 10
-30 20 10
-40 10 20
[...]
  <PointData Scalars="scalars">
    <DataArray type="Float32" Name="u" format="ascii">
0.184589 0.203894 0.19741 0.220764 0.183383 0.202267 0.195932 0.218694 0.203894 0.225347 0.220764 0.248734 0.202267 0.223151 0.218694 0.245815 0.225347 0.248811 0.248734 0.281612 0.223151 0.245882 0.245815 0.277346 0.248811 0.273006 0.281612 0.318267 0.245882 0.269139 0.277346 0.312201 0.273006 0.2947 0.318267 0.355984 0.269139 0.289741 0.312201 0.347428 0.2947 0.311989 0.355984 0.385124 0.289741 0.306037 0.347428 0.3741 0.311989 0.318207 0.385124 0.396914 0.306037 0.312001 0.3741 0.385127 0.318207 0.311971 0.396914 0.385135 0.312001 0.305922 0.385127 0.374068 0.311971 0.295076 0.385135 0.355437 0.305922 0.289103 0.374068 0.346708 0.295076 0.270689 0.355437 0.31792 0.289103 0.267216 0.346708 0.312072 0.19741 0.220764 0.208918 0.237261 0.195932 0.218694 0.20717 0.234695 0.220764 0.248734 0.237261 0.273144 0.218694 0.245815 0.234695 0.2691 0.248734 0.281612 0.273144 0.31815 0.245815 0.277346 0.2691 0.312207 0.281612 0.318267 0.31815 0.375386 0.277346 0.312201 0.312207 0.365311 0.318267 0.355984 0.375386 0.44153 0.312201 0.347428 0.365311 0.425763 0.355984 0.385124 0.44153 0.501877 0.347428 0.3741 0.425763 0.47433 0.385124 0.396914 0.501877 0.528984 0.3741 0.385127 0.47433 0.502044 0.396914 0.385135 0.528984 0.502163 0.385127 0.374068 0.502044 0.474511 0.385135 0.355437 0.502163 0.442111 0.374068 0.346708 0.474511 0.426563 0.355437 0.31792 0.442111 0.375614 0.346708 0.312072 0.426563 0.365526 0.208918 0.237261 0.218528 0.251531 0.20717 0.234695 0.216447 0.248477 0.237261 0.273144 0.251531 0.295963 0.234695 0.2691 0.248477 0.290465 0.273144 0.31815 0.295963 0.355588 0.2691 0.312207 0.290465 0.346821 0.31815 0.375386 0.355588 0.441462 0.312207 0.365311 0.346821 0.425337 0.375386 0.44153 0.441462 0.568022 0.365311 0.425763 0.425337 0.533266 0.44153 0.501877 0.568022 0.724353 0.425763 0.47433 0.533266 0.654301 0.501877 0.528984 0.724353 0.806551 0.47433 0.502044 0.654301 0.724934 0.528984 0.502163 0.806551 0.725118 0.502044 0.474511 0.724934 0.654941 0.502163 0.442111 0.725118 0.569079 0.474511 0.426563 0.654941 0.533121 0.442111 0.375614 0.569079 0.443317 0.426563 0.365526 0.533121 0.425952 0.218528 0.251531 0.224846 0.262392 0.216447 0.248477 0.222836 0.257861 0.251531 0.295963 0.262392 0.31201 0.248477 0.290465 0.257861 0.305951 0.295963 0.355588 0.31201 0.383476 0.290465 0.346821 0.305951 0.37328 0.355588 0.441462 0.383476 0.502369 0.346821 0.425337 0.37328 0.479984 0.441462 0.568022 0.502369 0.716443 0.425337 0.533266 0.479984 0.656425 0.569079 0.443317 0.725008 0.504293 0.533121 0.425952 0.655593 0.470239 0.224846 0.262392 0.22742 0.265391 0.222836 0.257861 0.224841 0.26239 0.262392 0.31201 0.265391 0.320114 0.257861 0.305951 0.26239 0.312007 0.725008 0.504293 0.80698 0.532917 0.655593 0.470239 0.725027 0.504233 0.22742 0.265391 0.224846 0.262392 0.224841 0.26239 0.222836 0.257861 0.265391 0.320114 0.262392 0.31201 0.26239 0.312007 0.257861 0.305951 0.80698 0.532917 0.725004 0.504292 0.725027 0.504233 0.65559 0.470239 0.224846 0.262392 0.218528 0.25153 0.222836 0.257861 0.216447 0.248476 0.262392 0.31201 0.25153 0.295963 0.257861 0.305951 0.248476 0.290465 0.31201 0.383476 0.295963 0.355588 0.305951 0.37328 0.290465 0.346821 0.383476 0.502368 0.355588 0.441461 0.37328 0.479983 0.346821 0.425336 0.502368 0.716439 0.441461 0.568021 0.479983 0.656422 0.425336 0.533266 0.725004 0.504292 0.569077 0.443317 0.65559 0.470239 0.53312 0.425951 0.218528 0.25153 0.208918 0.237261 0.216447 0.248476 0.20717 0.234695 0.25153 0.295963 0.237261 0.273143 0.248476 0.290465 0.234695 0.2691 0.295963 0.355588 0.273143 0.31815 0.290465 0.346821 0.2691 0.312207 0.355588 0.441461 0.31815 0.375386 0.346821 0.425336 0.312207 0.365311 0.441461 0.568021 0.375386 0.44153 0.425336 0.533266 0.365311 0.425763 0.568021 0.724358 0.44153 0.501879 0.533266 0.654302 0.425763 0.474331 0.724358 0.806567 0.501879 0.528987 0.654302 0.724939 0.474331 0.502046 0.806567 0.725124 0.528987 0.502165 0.724939 0.654943 0.502046 0.474512 0.725124 0.569077 0.502165 0.442112 0.654943 0.53312 0.474512 0.426564 0.569077 0.443317 0.442112 0.375614 0.53312 0.425951 0.426564 0.365525 0.208918 0.237261 0.19741 0.220764 0.20717 0.234695 0.195932 0.218694 0.237261 0.273143 0.220764 0.248734 0.234695 0.2691 0.218694 0.245815 0.273143 0.31815 0.248734 0.281612 0.2691 0.312207 0.245815 0.277346 0.31815 0.375386 0.281612 0.318267 0.312207 0.365311 0.277346 0.312201 0.375386 0.44153 0.318267 0.355985 0.365311 0.425763 0.312201 0.347428 0.44153 0.501879 0.355985 0.385125 0.425763 0.474331 0.347428 0.3741 0.501879 0.528987 0.385125 0.396915 0.474331 0.502046 0.3741 0.385128 0.528987 0.502165 0.396915 0.385136 0.502046 0.474512 0.385128 0.374068 0.502165 0.442112 0.385136 0.355438 0.474512 0.426564 0.374068 0.346708 0.442112 0.375614 0.355438 0.31792 0.426564 0.365525 0.346708 0.312072 0.19741 0.220764 0.184589 0.203894 0.195932 0.218694 0.183383 0.202267 0.220764 0.248734 0.203894 0.225347 0.218694 0.245815 0.202267 0.223151 0.248734 0.281612 0.225347 0.248811 0.245815 0.277346 0.223151 0.245882 0.281612 0.318267 0.248811 0.273006 0.277346 0.312201 0.245882 0.269139 0.318267 0.355985 0.273006 0.294701 0.312201 0.347428 0.269139 0.289741 0.355985 0.385125 0.294701 0.311989 0.347428 0.3741 0.289741 0.306038 0.385125 0.396915 0.311989 0.318208 0.3741 0.385128 0.306038 0.312001 0.396915 0.385136 0.318208 0.311972 0.385128 0.374068 0.312001 0.305922 0.385136 0.355438 0.311972 0.295076 0.374068 0.346708 0.305922 0.289104 0.355438 0.31792 0.295076 0.270689 0.346708 0.312072 0.289104 0.267217 0.183383 0.202267 0.195932 0.218694 0.1799 0.197597 0.191682 0.212823 0.202267 0.223151 0.218694 0.245815 0.197597 0.21693 0.212823 0.237564 0.223151 0.245882 0.245815 0.277346 0.21693 0.237655 0.237564 0.265663 0.245882 0.269139 0.277346 0.312201 0.237655 0.258382 0.265663 0.295841 0.269139 0.289741 0.312201 0.347428 0.258382 0.276962 0.295841 0.32434 0.289741 0.306037 0.347428 0.3741 0.276962 0.289241 0.32434 0.346849 0.306037 0.312001 0.3741 0.385127 0.289241 0.295303 0.346849 0.355505 0.312001 0.305922 0.385127 0.374068 0.295303 0.28916 0.355505 0.34686 0.305922 0.289103 0.374068 0.346708 0.28916 0.276703 0.34686 0.324245 0.289103 0.267216 0.346708 0.312072 0.276703 0.256852 0.324245 0.295669 0.195932 0.218694 0.20717 0.234695 0.191682 0.212823 0.202164 0.227463 0.218694 0.245815 0.234695 0.2691 0.212823 0.237564 0.227463 0.25839 0.245815 0.277346 0.2691 0.312207 0.237564 0.265663 0.25839 0.295796 0.277346 0.312201 0.312207 0.365311 0.265663 0.295841 0.295796 0.339456 0.312201 0.347428 0.365311 0.425763 0.295841 0.32434 0.339456 0.386247 0.347428 0.3741 0.425763 0.47433 0.32434 0.346849 0.386247 0.426198 0.3741 0.385127 0.47433 0.502044 0.346849 0.355505 0.426198 0.44189 0.385127 0.374068 0.502044 0.474511 0.355505 0.34686 0.44189 0.426383 0.374068 0.346708 0.474511 0.426563 0.34686 0.324245 0.426383 0.386771 0.346708 0.312072 0.426563 0.365526 0.324245 0.295669 0.386771 0.33954 0.20717 0.234695 0.216447 0.248477 0.202164 0.227463 0.21074 0.239898 0.234695 0.2691 0.248477 0.290465 0.227463 0.25839 0.239898 0.277043 0.2691 0.312207 0.290465 0.346821 0.25839 0.295796 0.277043 0.324933 0.312207 0.365311 0.346821 0.425337 0.295796 0.339456 0.324933 0.384678 0.365311 0.425763 0.425337 0.533266 0.339456 0.386247 0.384678 0.461277 0.47433 0.502044 0.654301 0.724934 0.426198 0.44189 0.532474 0.568743 0.502044 0.474511 0.724934 0.654941 0.44189 0.426383 0.568743 0.532776 0.426563 0.365526 0.533121 0.425952 0.386771 0.33954 0.462059 0.388645 0.216447 0.248477 0.222836 0.257861 0.21074 0.239898 0.216439 0.248473 0.248477 0.290465 0.257861 0.305951 0.239898 0.277043 0.248473 0.290456 0.290465 0.346821 0.305951 0.37328 0.277043 0.324933 0.290456 0.346813 0.346821 0.425337 0.37328 0.479984 0.324933 0.384678 0.346813 0.425337 0.425337 0.533266 0.479984 0.656425 0.384678 0.461277 0.425337 0.533286 0.222836 0.257861 0.224841 0.26239 0.216439 0.248473 0.218516 0.251525 0.257861 0.305951 0.26239 0.312007 0.248473 0.290456 0.251525 0.295951 0.305951 0.37328 0.312007 0.383473 0.290456 0.346813 0.295951 0.355576 0.37328 0.479984 0.383473 0.502372 0.346813 0.425337 0.355576 0.441474 0.479984 0.656425 0.502372 0.71648 0.425337 0.533286 0.441474 0.568059 0.655593 0.470239 0.725027 0.504233 0.533137 0.425884 0.569076 0.443188 0.224841 0.26239 0.222836 0.257861 0.218516 0.251525 0.216439 0.248473 0.26239 0.312007 0.257861 0.305951 0.251525 0.295951 0.248473 0.290455 0.312007 0.383473 0.305951 0.37328 0.295951 0.355576 0.290455 0.346812 0.383473 0.502372 0.37328 0.479983 0.355576 0.441474 0.346812 0.425336 0.502372 0.71648 0.479983 0.656422 0.441474 0.568059 0.425336 0.533285 0.725027 0.504233 0.65559 0.470239 0.569076 0.443188 0.533135 0.425883 0.222836 0.257861 0.216447 0.248476 0.216439 0.248473 0.21074 0.239898 0.257861 0.305951 0.248476 0.290465 0.248473 0.290455 0.239898 0.277043 0.305951 0.37328 0.290465 0.346821 0.290455 0.346812 0.277043 0.324933 0.37328 0.479983 0.346821 0.425336 0.346812 0.425336 0.324933 0.384677 0.479983 0.656422 0.425336 0.533266 0.425336 0.533285 0.384677 0.461276 0.216447 0.248476 0.20717 0.234695 0.21074 0.239898 0.202164 0.227463 0.248476 0.290465 0.234695 0.2691 0.239898 0.277043 0.227463 0.25839 0.290465 0.346821 0.2691 0.312207 0.277043 0.324933 0.25839 0.295796 0.346821 0.425336 0.312207 0.365311 0.324933 0.384677 0.295796 0.339455 0.425336 0.533266 0.365311 0.425763 0.384677 0.461276 0.339455 0.386247 0.654302 0.724939 0.474331 0.502046 0.532473 0.568742 0.426198 0.44189 0.724939 0.654943 0.502046 0.474512 0.568742 0.532775 0.44189 0.426383 0.53312 0.425951 0.426564 0.365525 0.462059 0.388644 0.386771 0.33954 0.20717 0.234695 0.195932 0.218694 0.202164 0.227463 0.191682 0.212823 0.234695 0.2691 0.218694 0.245815 0.227463 0.25839 0.212823 0.237564 0.2691 0.312207 0.245815 0.277346 0.25839 0.295796 0.237564 0.265662 0.312207 0.365311 0.277346 0.312201 0.295796 0.339455 0.265662 0.295841 0.365311 0.425763 0.312201 0.347428 0.339455 0.386247 0.295841 0.32434 0.425763 0.474331 0.347428 0.3741 0.386247 0.426198 0.32434 0.346849 0.474331 0.502046 0.3741 0.385128 0.426198 0.44189 0.346849 0.355505 0.502046 0.474512 0.385128 0.374068 0.44189 0.426383 0.355505 0.34686 0.474512 0.426564 0.374068 0.346708 0.426383 0.386771 0.34686 0.324245 0.426564 0.365525 0.346708 0.312072 0.386771 0.33954 0.324245 0.295669 0.195932 0.218694 0.183383 0.202267 0.191682 0.212823 0.1799 0.197597 0.218694 0.245815 0.202267 0.223151 0.212823 0.237564 0.197597 0.21693 0.245815 0.277346 0.223151 0.245882 0.237564 0.265662 0.21693 0.237655 0.277346 0.312201 0.245882 0.269139 0.265662 0.295841 0.237655 0.258382 0.312201 0.347428 0.269139 0.289741 0.295841 0.32434 0.258382 0.276962 0.347428 0.3741 0.289741 0.306038 0.32434 0.346849 0.276962 0.289241 0.3741 0.385128 0.306038 0.312001 0.346849 0.355505 0.289241 0.295303 0.385128 0.374068 0.312001 0.305922 0.355505 0.34686 0.295303 0.28916 0.374068 0.346708 0.305922 0.289104 0.34686 0.324245 0.28916 0.276703 0.346708 0.312072 0.289104 0.267217 0.324245 0.295669 0.276703 0.256852 0.1799 0.197597 0.191682 0.212823 0.174494 0.190462 0.185158 0.203985 0.197597 0.21693 0.212823 0.237564 0.190462 0.20759 0.203985 0.225451 0.21693 0.237655 0.237564 0.265663 0.20759 0.225537 0.225451 0.249038 0.237655 0.258382 0.265663 0.295841 0.225537 0.24309 0.249038 0.273366 0.258382 0.276962 0.295841 0.32434 0.24309 0.258269 0.273366 0.295789 0.276962 0.289241 0.32434 0.346849 0.258269 0.268946 0.295789 0.312086 0.289241 0.295303 0.346849 0.355505 0.268946 0.272735 0.312086 0.318167 0.295303 0.28916 0.355505 0.34686 0.272735 0.268891 0.318167 0.312063 0.28916 0.276703 0.34686 0.324245 0.268891 0.258065 0.312063 0.295659 0.276703 0.256852 0.324245 0.295669 0.258065 0.242002 0.295659 0.273184 0.191682 0.212823 0.202164 0.227463 0.185158 0.203985 0.194561 0.216773 0.212823 0.237564 0.227463 0.25839 0.203985 0.225451 0.216773 0.243022 0.237564 0.265663 0.25839 0.295796 0.225451 0.249038 0.243022 0.273357 0.265663 0.295841 0.295796 0.339456 0.249038 0.273366 0.273357 0.306849 0.295841 0.32434 0.339456 0.386247 0.273366 0.295789 0.306849 0.339279 0.32434 0.346849 0.386247 0.426198 0.295789 0.312086 0.339279 0.365456 0.346849 0.355505 0.426198 0.44189 0.312086 0.318167 0.365456 0.375659 0.355505 0.34686 0.44189 0.426383 0.318167 0.312063 0.375659 0.365646 0.34686 0.324245 0.426383 0.386771 0.312063 0.295659 0.365646 0.339484 0.324245 0.295669 0.386771 0.33954 0.295659 0.273184 0.339484 0.30735 0.202164 0.227463 0.21074 0.239898 0.194561 0.216773 0.202171 0.227465 0.227463 0.25839 0.239898 0.277043 0.216773 0.243022 0.227465 0.258374 0.25839 0.295796 0.277043 0.324933 0.243022 0.273357 0.258374 0.29576 0.295796 0.339456 0.324933 0.384678 0.273357 0.306849 0.29576 0.339404 0.339456 0.386247 0.384678 0.461277 0.306849 0.339279 0.339404 0.386176 0.386247 0.426198 0.461277 0.532474 0.339279 0.365456 0.386176 0.426129 0.426198 0.44189 0.532474 0.568743 0.365456 0.375659 0.426129 0.441831 0.44189 0.426383 0.568743 0.532776 0.375659 0.365646 0.441831 0.42637 0.426383 0.386771 0.532776 0.462059 0.365646 0.339484 0.42637 0.387015 0.386771 0.33954 0.462059 0.388645 0.339484 0.30735 0.387015 0.33957 0.21074 0.239898 0.216439 0.248473 0.202171 0.227465 0.207172 0.234694 0.239898 0.277043 0.248473 0.290456 0.227465 0.258374 0.234694 0.269075 0.277043 0.324933 0.290456 0.346813 0.258374 0.29576 0.269075 0.312151 0.324933 0.384678 0.346813 0.425337 0.29576 0.339404 0.312151 0.365304 0.384678 0.461277 0.425337 0.533286 0.339404 0.386176 0.365304 0.425704 0.532474 0.568743 0.654364 0.725051 0.426129 0.441831 0.474277 0.501993 0.568743 0.532776 0.725051 0.655013 0.441831 0.42637 0.501993 0.4745 0.462059 0.388645 0.533137 0.425884 0.387015 0.33957 0.426566 0.365462 0.216439 0.248473 0.218516 0.251525 0.207172 0.234694 0.208916 0.237259 0.248473 0.290456 0.251525 0.295951 0.234694 0.269075 0.237259 0.273118 0.290456 0.346813 0.295951 0.355576 0.269075 0.312151 0.273118 0.318074 0.346813 0.425337 0.355576 0.441474 0.312151 0.365304 0.318074 0.375487 0.425337 0.533286 0.441474 0.568059 0.365304 0.425704 0.375487 0.441488 0.533286 0.654364 0.568059 0.72451 0.425704 0.474277 0.441488 0.501845 0.654364 0.725051 0.72451 0.806832 0.474277 0.501993 0.501845 0.52895 0.725051 0.655013 0.806832 0.725273 0.501993 0.4745 0.52895 0.502129 0.655013 0.533137 0.725273 0.569076 0.4745 0.426566 0.502129 0.442067 0.533137 0.425884 0.569076 0.443188 0.426566 0.365462 0.442067 0.375479 0.218516 0.251525 0.216439 0.248473 0.208916 0.237259 0.207172 0.234694 0.251525 0.295951 0.248473 0.290455 0.237259 0.273118 0.234694 0.269075 0.295951 0.355576 0.290455 0.346812 0.273118 0.318074 0.269075 0.312151 0.355576 0.441474 0.346812 0.425336 0.318074 0.375487 0.312151 0.365303 0.441474 0.568059 0.425336 0.533285 0.375487 0.441488 0.365303 0.425704 0.568059 0.72451 0.533285 0.65436 0.441488 0.501845 0.425704 0.474277 0.72451 0.806832 0.65436 0.725046 0.501845 0.52895 0.474277 0.501992 0.806832 0.725273 0.725046 0.655009 0.52895 0.502129 0.501992 0.4745 0.725273 0.569076 0.655009 0.533135 0.502129 0.442067 0.4745 0.426565 0.569076 0.443188 0.533135 0.425883 0.442067 0.375479 0.426565 0.365462 0.216439 0.248473 0.21074 0.239898 0.207172 0.234694 0.202171 0.227464 0.248473 0.290455 0.239898 0.277043 0.234694 0.269075 0.227464 0.258374 0.290455 0.346812 0.277043 0.324933 0.269075 0.312151 0.258374 0.295759 0.346812 0.425336 0.324933 0.384677 0.312151 0.365303 0.295759 0.339404 0.425336 0.533285 0.384677 0.461276 0.365303 0.425704 0.339404 0.386175 0.65436 0.725046 0.532473 0.568742 0.474277 0.501992 0.426129 0.44183 0.725046 0.655009 0.568742 0.532775 0.501992 0.4745 0.44183 0.42637 0.533135 0.425883 0.462059 0.388644 0.426565 0.365462 0.387015 0.339569 0.21074 0.239898 0.202164 0.227463 0.202171 0.227464 0.194561 0.216773 0.239898 0.277043 0.227463 0.25839 0.227464 0.258374 0.216773 0.243022 0.277043 0.324933 0.25839 0.295796 0.258374 0.295759 0.243022 0.273357 0.324933 0.384677 0.295796 0.339455 0.295759 0.339404 0.273357 0.306849 0.384677 0.461276 0.339455 0.386247 0.339404 0.386175 0.306849 0.339279 0.461276 0.532473 0.386247 0.426198 0.386175 0.426129 0.339279 0.365456 0.532473 0.568742 0.426198 0.44189 0.426129 0.44183 0.365456 0.375658 0.568742 0.532775 0.44189 0.426383 0.44183 0.42637 0.375658 0.365646 0.532775 0.462059 0.426383 0.386771 0.42637 0.387015 0.365646 0.339484 0.462059 0.388644 0.386771 0.33954 0.387015 0.339569 0.339484 0.30735 0.202164 0.227463 0.191682 0.212823 0.194561 0.216773 0.185158 0.203985 0.227463 0.25839 0.212823 0.237564 0.216773 0.243022 0.203985 0.225451 0.25839 0.295796 0.237564 0.265662 0.243022 0.273357 0.225451 0.249038 0.295796 0.339455 0.265662 0.295841 0.273357 0.306849 0.249038 0.273366 0.339455 0.386247 0.295841 0.32434 0.306849 0.339279 0.273366 0.295789 0.386247 0.426198 0.32434 0.346849 0.339279 0.365456 0.295789 0.312086 0.426198 0.44189 0.346849 0.355505 0.365456 0.375658 0.312086 0.318167 0.44189 0.426383 0.355505 0.34686 0.375658 0.365646 0.318167 0.312063 0.426383 0.386771 0.34686 0.324245 0.365646 0.339484 0.312063 0.295659 0.386771 0.33954 0.324245 0.295669 0.339484 0.30735 0.295659 0.273184 0.191682 0.212823 0.1799 0.197597 0.185158 0.203985 0.174494 0.190462 0.212823 0.237564 0.197597 0.21693 0.203985 0.225451 0.190462 0.20759 0.237564 0.265662 0.21693 0.237655 0.225451 0.249038 0.20759 0.225537 0.265662 0.295841 0.237655 0.258382 0.249038 0.273366 0.225537 0.24309 0.295841 0.32434 0.258382 0.276962 0.273366 0.295789 0.24309 0.258269 0.32434 0.346849 0.276962 0.289241 0.295789 0.312086 0.258269 0.268946 0.346849 0.355505 0.289241 0.295303 0.312086 0.318167 0.268946 0.272735 0.355505 0.34686 0.295303 0.28916 0.318167 0.312063 0.272735 0.268891 0.34686 0.324245 0.28916 0.276703 0.312063 0.295659 0.268891 0.258065 0.324245 0.295669 0.276703 0.256852 0.295659 0.273184 0.258065 0.242002 0.174494 0.190462 0.185158 0.203985 0.167651 0.181622 0.177019 0.193237 0.190462 0.20759 0.203985 0.225451 0.181622 0.19628 0.193237 0.211174 0.20759 0.225537 0.225451 0.249038 0.19628 0.211247 0.211174 0.230165 0.225537 0.24309 0.249038 0.273366 0.211247 0.225487 0.230165 0.248986 0.24309 0.258269 0.273366 0.295789 0.225487 0.237554 0.248986 0.265549 0.258269 0.268946 0.295789 0.312086 0.237554 0.245724 0.265549 0.277218 0.268946 0.272735 0.312086 0.318167 0.245724 0.248625 0.277218 0.28145 0.272735 0.268891 0.318167 0.312063 0.248625 0.245656 0.28145 0.27718 0.268891 0.258065 0.312063 0.295659 0.245656 0.237369 0.27718 0.265387 0.258065 0.242002 0.295659 0.273184 0.237369 0.224678 0.265387 0.248816 0.185158 0.203985 0.194561 0.216773 0.177019 0.193237 0.185192 0.204014 0.203985 0.225451 0.216773 0.243022 0.193237 0.211174 0.204014 0.225412 0.225451 0.249038 0.243022 0.273357 0.211174 0.230165 0.225412 0.248972 0.249038 0.273366 0.273357 0.306849 0.230165 0.248986 0.248972 0.273298 0.273366 0.295789 0.306849 0.339279 0.248986 0.265549 0.273298 0.295717 0.295789 0.312086 0.339279 0.365456 0.265549 0.277218 0.295717 0.311967 0.312086 0.318167 0.365456 0.375659 0.277218 0.28145 0.311967 0.317937 0.318167 0.312063 0.375659 0.365646 0.28145 0.27718 0.317937 0.311823 0.312063 0.295659 0.365646 0.339484 0.27718 0.265387 0.311823 0.29565 0.295659 0.273184 0.339484 0.30735 0.265387 0.248816 0.29565 0.273159 0.194561 0.216773 0.202171 0.227465 0.185192 0.204014 0.191729 0.212861 0.216773 0.243022 0.227465 0.258374 0.204014 0.225412 0.212861 0.23751 0.243022 0.273357 0.258374 0.29576 0.225412 0.248972 0.23751 0.265559 0.273357 0.306849 0.29576 0.339404 0.248972 0.273298 0.265559 0.295693 0.306849 0.339279 0.339404 0.386176 0.273298 0.295717 0.295693 0.32429 0.339279 0.365456 0.386176 0.426129 0.295717 0.311967 0.32429 0.346465 0.365456 0.375659 0.426129 0.441831 0.311967 0.317937 0.346465 0.355308 0.375659 0.365646 0.441831 0.42637 0.317937 0.311823 0.355308 0.346726 0.365646 0.339484 0.42637 0.387015 0.311823 0.29565 0.346726 0.32327 0.339484 0.30