<?xml version="1.0" ?> 
<!-- 
# vtk DataFile Version 3.0
#This file was generated by the deal.II library on 16:51:07 at 2019/11/27
-->
<VTKFile type="UnstructuredGrid" version="0.1" byte_order="LittleEndian">
<UnstructuredGrid>
<Piece NumberOfPoints="17016" NumberOfCells="2127" >
  <Points>
    <DataArray type="Float32" NumberOfComponents="3" format="ascii">
-50 -50 0
-40 -50 0
-50 -40 0
-40 -40 0
-50 -50 10
-40 -50 10
-50 -40 10
-40 -40 10
-40 -50 0
-30 -50 0
-40 -40 0
-30 -40 0
-40 -50 10
-30 -50 10
-40 -40 10
-30 -40 10
-30 -50 0
-20 -50 0
-30 -40 0
-20 -40 0
-30 -50 10
-20 -50 10
-30 -40 10
-20 -40 10
-20 -50 0
-10 -50 0
-20 -40 0
-10 -40 0
-20 -50 10
-10 -50 10
-20 -40 10
-10 -40 10
-10 -50 0
0 -50 0
-10 -40 0
0 -40 0
-10 -50 10
0 -50 10
-10 -40 10
0 -40 10
0 -50 0
10 -50 0
0 -40 0
10 -40 0
0 -50 10
10 -50 10
0 -40 10
10 -40 10
10 -50 0
20 -50 0
10 -40 0
20 -40 0
10 -50 10
20 -50 10
10 -40 10
20 -40 10
20 -50 0
30 -50 0
20 -40 0
30 -40 0
20 -50 10
30 -50 10
20 -40 10
30 -40 10
30 -50 0
40 -50 0
30 -40 0
40 -40 0
30 -50 10
40 -50 10
30 -40 10
40 -40 10
40 -50 0
50 -50 0
40 -40 0
50 -40 0
40 -50 10
50 -50 10
40 -40 10
50 -40 10
-50 -40 0
-40 -40 0
-50 -30 0
-40 -30 0
-50 -40 10
-40 -40 10
-50 -30 10
-40 -30 10
-40 -40 0
-30 -40 0
-40 -30 0
-30 -30 0
-40 -40 10
-30 -40 10
-40 -30 10
-30 -30 10
-30 -40 0
-20 -40 0
-30 -30 0
-20 -30 0
-30 -40 10
-20 -40 10
-30 -30 10
-20 -30 10
-20 -40 0
-10 -40 0
-20 -30 0
-10 -30 0
-20 -40 10
-10 -40 10
-20 -30 10
-10 -30 10
-10 -40 0
0 -40 0
-10 -30 0
0 -30 0
-10 -40 10
0 -40 10
-10 -30 10
0 -30 10
0 -40 0
10 -40 0
0 -30 0
10 -30 0
0 -40 10
10 -40 10
0 -30 10
10 -30 10
10 -40 0
20 -40 0
10 -30 0
20 -30 0
10 -40 10
20 -40 10
10 -30 10
20 -30 10
20 -40 0
30 -40 0
20 -30 0
30 -30 0
20 -40 10
30 -40 10
20 -30 10
30 -30 10
30 -40 0
40 -40 0
30 -30 0
40 -30 0
30 -40 10
40 -40 10
30 -30 10
40 -30 10
40 -40 0
50 -40 0
40 -30 0
50 -30 0
40 -40 10
50 -40 10
40 -30 10
50 -30 10
-50 -30 0
-40 -30 0
-50 -20 0
-40 -20 0
-50 -30 10
-40 -30 10
-50 -20 10
-40 -20 10
-40 -30 0
-30 -30 0
-40 -20 0
-30 -20 0
-40 -30 10
-30 -30 10
-40 -20 10
-30 -20 10
-30 -30 0
-20 -30 0
-30 -20 0
-20 -20 0
-30 -30 10
-20 -30 10
-30 -20 10
-20 -20 10
-20 -30 0
-10 -30 0
-20 -20 0
-10 -20 0
-20 -30 10
-10 -30 10
-20 -20 10
-10 -20 10
-10 -30 0
0 -30 0
-10 -20 0
0 -20 0
-10 -30 10
0 -30 10
-10 -20 10
0 -20 10
0 -30 0
10 -30 0
0 -20 0
10 -20 0
0 -30 10
10 -30 10
0 -20 10
10 -20 10
30 -30 0
40 -30 0
30 -20 0
40 -20 0
30 -30 10
40 -30 10
30 -20 10
40 -20 10
40 -30 0
50 -30 0
40 -20 0
50 -20 0
40 -30 10
50 -30 10
40 -20 10
50 -20 10
-50 -20 0
-40 -20 0
-50 -10 0
-40 -10 0
-50 -20 10
-40 -20 10
-50 -10 10
-40 -10 10
-40 -20 0
-30 -20 0
-40 -10 0
-30 -10 0
-40 -20 10
-30 -20 10
-40 -10 10
-30 -10 10
-30 -20 0
-20 -20 0
-30 -10 0
-20 -10 0
-30 -20 10
-20 -20 10
-30 -10 10
-20 -10 10
-20 -20 0
-10 -20 0
-20 -10 0
-10 -10 0
-20 -20 10
-10 -20 10
-20 -10 10
-10 -10 10
-10 -20 0
0 -20 0
-10 -10 0
0 -10 0
-10 -20 10
0 -20 10
-10 -10 10
0 -10 10
0 -20 0
10 -20 0
0 -10 0
10 -10 0
0 -20 10
10 -20 10
0 -10 10
10 -10 10
-50 -10 0
-40 -10 0
-50 0 0
-40 0 0
-50 -10 10
-40 -10 10
-50 0 10
-40 0 10
-40 -10 0
-30 -10 0
-40 0 0
-30 0 0
-40 -10 10
-30 -10 10
-40 0 10
-30 0 10
-30 -10 0
-20 -10 0
-30 0 0
-20 0 0
-30 -10 10
-20 -10 10
-30 0 10
-20 0 10
-20 -10 0
-10 -10 0
-20 0 0
-10 0 0
-20 -10 10
-10 -10 10
-20 0 10
-10 0 10
-50 0 0
-40 0 0
-50 10 0
-40 10 0
-50 0 10
-40 0 10
-50 10 10
-40 10 10
-40 0 0
-30 0 0
-40 10 0
-30 10 0
-40 0 10
-30 0 10
-40 10 10
-30 10 10
-30 0 0
-20 0 0
-30 10 0
-20 10 0
-30 0 10
-20 0 10
-30 10 10
-20 10 10
-20 0 0
-10 0 0
-20 10 0
-10 10 0
-20 0 10
-10 0 10
-20 10 10
-10 10 10
-50 10 0
-40 10 0
-50 20 0
-40 20 0
-50 10 10
-40 10 10
-50 20 10
-40 20 10
-40 10 0
-30 10 0
-40 20 0
-30 20 0
-40 10 10
-30 10 10
-40 20 10
-30 20 10
-30 10 0
-20 10 0
-30 20 0
-20 20 0
-30 10 10
-20 10 10
-30 20 10
-20 20 10
-20 10 0
-10 10 0
-20 20 0
-10 20 0
-20 10 10
-10 10 10
-20 20 10
-10 20 10
-10 10 0
0 10 0
-10 20 0
0 20 0
-10 10 10
0 10 10
-10 20 10
0 20 10
0 10 0
10 10 0
0 20 0
10 20 0
0 10 10
10 10 10
0 20 10
10 20 10
-50 20 0
-40 20 0
-50 30 0
-40 30 0
-50 20 10
-40 20 10
-50 30 10
-40 30 10
-40 20 0
-30 20 0
-40 30 0
-30 30 0
-40 20 10
-30 20 10
-40 30 10
-30 30 10
-30 20 0
-20 20 0
-30 30 0
-20 30 0
-30 20 10
-20 20 10
-30 30 10
-20 30 10
-20 20 0
-10 20 0
-20 30 0
-10 30 0
-20 20 10
-10 20 10
-20 30 10
-10 30 10
-10 20 0
0 20 0
-10 30 0
0 30 0
-10 20 10
0 20 10
-10 30 10
0 30 10
0 20 0
10 20 0
0 30 0
10 30 0
0 20 10
10 20 10
0 30 10
10 30 10
30 20 0
40 20 0
30 30 0
40 30 0
30 20 10
40 20 10
30 30 10
40 30 10
40 20 0
50 20 0
40 30 0
50 30 0
40 20 10
50 20 10
40 30 10
50 30 10
-50 30 0
-40 30 0
-50 40 0
-40 40 0
-50 30 10
-40 30 10
-50 40 10
-40 40 10
-40 30 0
-30 30 0
-40 40 0
-30 40 0
-40 30 10
-30 30 10
-40 40 10
-30 40 10
-30 30 0
-20 30 0
-30 40 0
-20 40 0
-30 30 10
-20 30 10
-30 40 10
-20 40 10
-20 30 0
-10 30 0
-20 40 0
-10 40 0
-20 30 10
-10 30 10
-20 40 10
-10 40 10
-10 30 0
0 30 0
-10 40 0
0 40 0
-10 30 10
0 30 10
-10 40 10
0 40 10
0 30 0
10 30 0
0 40 0
10 40 0
0 30 10
10 30 10
0 40 10
10 40 10
10 30 0
20 30 0
10 40 0
20 40 0
10 30 10
20 30 10
10 40 10
20 40 10
20 30 0
30 30 0
20 40 0
30 40 0
20 30 10
30 30 10
20 40 10
30 40 10
30 30 0
40 30 0
30 40 0
40 40 0
30 30 10
40 30 10
30 40 10
40 40 10
40 30 0
50 30 0
40 40 0
50 40 0
40 30 10
50 30 10
40 40 10
50 40 10
-50 40 0
-40 40 0
-50 50 0
-40 50 0
-50 40 10
-40 40 10
-50 50 10
-40 50 10
-40 40 0
-30 40 0
-40 50 0
-30 50 0
-40 40 10
-30 40 10
-40 50 10
-30 50 10
-30 40 0
-20 40 0
-30 50 0
-20 50 0
-30 40 10
-20 40 10
-30 50 10
-20 50 10
-20 40 0
-10 40 0
-20 50 0
-10 50 0
-20 40 10
-10 40 10
-20 50 10
-10 50 10
-10 40 0
0 40 0
-10 50 0
0 50 0
-10 40 10
0 40 10
-10 50 10
0 50 10
0 40 0
10 40 0
0 50 0
10 50 0
0 40 10
10 40 10
0 50 10
10 50 10
10 40 0
20 40 0
10 50 0
20 50 0
10 40 10
20 40 10
10 50 10
20 50 10
20 40 0
30 40 0
20 50 0
30 50 0
20 40 10
30 40 10
20 50 10
30 50 10
30 40 0
40 40 0
30 50 0
40 50 0
30 40 10
40 40 10
30 50 10
40 50 10
40 40 0
50 40 0
40 50 0
50 50 0
40 40 10
50 40 10
40 50 10
50 50 10
-50 -50 10
-40 -50 10
-50 -40 10
-40 -40 10
-50 -50 20
-40 -50 20
-50 -40 20
-40 -40 20
-40 -50 10
-30 -50 10
-40 -40 10
-30 -40 10
-40 -50 20
-30 -50 20
-40 -40 20
-30 -40 20
-30 -50 10
-20 -50 10
-30 -40 10
-20 -40 10
-30 -50 20
-20 -50 20
-30 -40 20
-20 -40 20
-20 -50 10
-10 -50 10
-20 -40 10
-10 -40 10
-20 -50 20
-10 -50 20
-20 -40 20
-10 -40 20
-10 -50 10
0 -50 10
-10 -40 10
0 -40 10
-10 -50 20
0 -50 20
-10 -40 20
0 -40 20
0 -50 10
10 -50 10
0 -40 10
10 -40 10
0 -50 20
10 -50 20
0 -40 20
10 -40 20
10 -50 10
20 -50 10
10 -40 10
20 -40 10
10 -50 20
20 -50 20
10 -40 20
20 -40 20
20 -50 10
30 -50 10
20 -40 10
30 -40 10
20 -50 20
30 -50 20
20 -40 20
30 -40 20
30 -50 10
40 -50 10
30 -40 10
40 -40 10
30 -50 20
40 -50 20
30 -40 20
40 -40 20
40 -50 10
50 -50 10
40 -40 10
50 -40 10
40 -50 20
50 -50 20
40 -40 20
50 -40 20
-50 -40 10
-40 -40 10
-50 -30 10
-40 -30 10
-50 -40 20
-40 -40 20
-50 -30 20
-40 -30 20
-40 -40 10
-30 -40 10
-40 -30 10
-30 -30 10
-40 -40 20
-30 -40 20
-40 -30 20
-30 -30 20
-30 -40 10
-20 -40 10
-30 -30 10
-20 -30 10
-30 -40 20
-20 -40 20
-30 -30 20
-20 -30 20
-20 -40 10
-10 -40 10
-20 -30 10
-10 -30 10
-20 -40 20
-10 -40 20
-20 -30 20
-10 -30 20
-10 -40 10
0 -40 10
-10 -30 10
0 -30 10
-10 -40 20
0 -40 20
-10 -30 20
0 -30 20
0 -40 10
10 -40 10
0 -30 10
10 -30 10
0 -40 20
10 -40 20
0 -30 20
10 -30 20
10 -40 10
20 -40 10
10 -30 10
20 -30 10
10 -40 20
20 -40 20
10 -30 20
20 -30 20
20 -40 10
30 -40 10
20 -30 10
30 -30 10
20 -40 20
30 -40 20
20 -30 20
30 -30 20
30 -40 10
40 -40 10
30 -30 10
40 -30 10
30 -40 20
40 -40 20
30 -30 20
40 -30 20
40 -40 10
50 -40 10
40 -30 10
50 -30 10
40 -40 20
50 -40 20
40 -30 20
50 -30 20
-50 -30 10
-40 -30 10
-50 -20 10
-40 -20 10
-50 -30 20
-40 -30 20
-50 -20 20
-40 -20 20
-40 -30 10
-30 -30 10
-40 -20 10
-30 -20 10
-40 -30 20
-30 -30 20
-40 -20 20
-30 -20 20
-30 -30 10
-20 -30 10
-30 -20 10
-20 -20 10
-30 -30 20
-20 -30 20
-30 -20 20
-20 -20 20
-20 -30 10
-10 -30 10
-20 -20 10
-10 -20 10
-20 -30 20
-10 -30 20
-20 -20 20
-10 -20 20
-10 -30 10
0 -30 10
-10 -20 10
0 -20 10
-10 -30 20
0 -30 20
-10 -20 20
0 -20 20
0 -30 10
10 -30 10
0 -20 10
10 -20 10
0 -30 20
10 -30 20
0 -20 20
10 -20 20
-50 -20 10
-40 -20 10
-50 -10 10
-40 -10 10
-50 -20 20
-40 -20 20
-50 -10 20
-40 -10 20
-40 -20 10
-30 -20 10
-40 -10 10
-30 -10 10
-40 -20 20
-30 -20 20
-40 -10 20
-30 -10 20
-30 -20 10
-20 -20 10
-30 -10 10
-20 -10 10
-30 -20 20
-20 -20 20
-30 -10 20
-20 -10 20
-20 -20 10
-10 -20 10
-20 -10 10
-10 -10 10
-20 -20 20
-10 -20 20
-20 -10 20
-10 -10 20
-10 -20 10
0 -20 10
-10 -10 10
0 -10 10
-10 -20 20
0 -20 20
-10 -10 20
0 -10 20
0 -20 10
10 -20 10
0 -10 10
10 -10 10
0 -20 20
10 -20 20
0 -10 20
10 -10 20
-50 -10 10
-40 -10 10
-50 0 10
-40 0 10
-50 -10 20
-40 -10 20
-50 0 20
-40 0 20
-40 -10 10
-30 -10 10
-40 0 10
-30 0 10
-40 -10 20
-30 -10 20
-40 0 20
-30 0 20
-30 -10 10
-20 -10 10
-30 0 10
-20 0 10
-30 -10 20
-20 -10 20
-30 0 20
-20 0 20
-20 -10 10
-10 -10 10
-20 0 10
-10 0 10
-20 -10 20
-10 -10 20
-20 0 20
-10 0 20
-10 -10 10
0 -10 10
-10 0 10
0 0 10
-10 -10 20
0 -10 20
-10 0 20
0 0 20
0 -10 10
10 -10 10
0 0 10
10 0 10
0 -10 20
10 -10 20
0 0 20
10 0 20
-50 0 10
-40 0 10
-50 10 10
-40 10 10
-50 0 20
-40 0 20
-50 10 20
-40 10 20
-40 0 10
-30 0 10
-40 10 10
-30 10 10
-40 0 20
-30 0 20
-40 10 20
-30 10 20
-30 0 10
-20 0 10
-30 10 10
-20 10 10
-30 0 20
-20 0 20
-30 10 20
-20 10 20
-20 0 10
-10 0 10
-20 10 10
-10 10 10
-20 0 20
-10 0 20
-20 10 20
-10 10 20
-10 0 10
0 0 10
-10 10 10
0 10 10
-10 0 20
0 0 20
-10 10 20
0 10 20
0 0 10
10 0 10
0 10 10
10 10 10
0 0 20
10 0 20
0 10 20
10 10 20
-50 10 10
-40 10 10
-50 20 10
-40 20 10
-50 10 20
-40 10 20
-50 20 20
-40 20 20
-40 10 10
-30 10 10
-40 20 10
-30 20 10
-40 10 20
-30 10 20
-40 20 20
-30 20 20
-30 10 10
-20 10 10
-30 20 10
-20 20 10
-30 10 20
-20 10 20
-30 20 20
-20 20 20
-20 10 10
-10 10 10
-20 20 10
-10 20 10
-20 10 20
-10 10 20
-20 20 20
-10 20 20
-10 10 10
0 10 10
-10 20 10
0 20 10
[...]
  <PointData Scalars="scalars">
    <DataArray type="Float32" Name="u" format="ascii">
0.154532 0.168971 0.161787 0.178187 0.153821 0.168039 0.160969 0.177096 0.168971 0.185414 0.178187 0.197783 0.168039 0.184186 0.177096 0.19629 0.185414 0.204319 0.197783 0.221177 0.184186 0.202679 0.19629 0.21911 0.204319 0.225744 0.221177 0.249197 0.202679 0.223551 0.21911 0.246222 0.225744 0.249283 0.249197 0.28209 0.223551 0.246284 0.246222 0.277834 0.249283 0.273102 0.28209 0.31949 0.246284 0.269419 0.277834 0.312515 0.273102 0.295823 0.31949 0.35618 0.269419 0.290862 0.312515 0.347622 0.295823 0.312045 0.35618 0.385064 0.290862 0.306328 0.347622 0.374748 0.312045 0.317783 0.385064 0.396579 0.306328 0.311702 0.374748 0.384869 0.317783 0.310023 0.396579 0.384306 0.311702 0.304416 0.384869 0.373702 0.161787 0.178187 0.167959 0.186527 0.160969 0.177096 0.167042 0.185273 0.178187 0.197783 0.186527 0.209329 0.177096 0.19629 0.185273 0.207571 0.197783 0.221177 0.209329 0.237702 0.19629 0.21911 0.207571 0.235093 0.221177 0.249197 0.237702 0.273131 0.21911 0.246222 0.235093 0.269339 0.249197 0.28209 0.273131 0.319542 0.246222 0.277834 0.269339 0.31258 0.28209 0.31949 0.319542 0.377338 0.277834 0.312515 0.31258 0.366156 0.31949 0.35618 0.377338 0.446534 0.312515 0.347622 0.366156 0.42968 0.35618 0.385064 0.446534 0.499488 0.347622 0.374748 0.42968 0.481059 0.385064 0.396579 0.499488 0.530273 0.374748 0.384869 0.481059 0.499931 0.396579 0.384306 0.530273 0.502776 0.384869 0.373702 0.499931 0.478832 0.167959 0.186527 0.172807 0.193269 0.167042 0.185273 0.17181 0.191857 0.186527 0.209329 0.193269 0.218981 0.185273 0.207571 0.191857 0.216881 0.209329 0.237702 0.218981 0.252111 0.207571 0.235093 0.216881 0.249386 0.237702 0.273131 0.252111 0.295868 0.235093 0.269339 0.249386 0.290893 0.273131 0.319542 0.295868 0.356513 0.269339 0.31258 0.290893 0.347841 0.319542 0.377338 0.356513 0.445719 0.31258 0.366156 0.347841 0.429453 0.499488 0.530273 0.718374 0.814522 0.481059 0.499931 0.655966 0.718793 0.530273 0.502776 0.814522 0.733814 0.499931 0.478832 0.718793 0.66053 0.172807 0.193269 0.175941 0.197666 0.17181 0.191857 0.174866 0.196208 0.193269 0.218981 0.197666 0.226033 0.191857 0.216881 0.196208 0.223225 0.218981 0.252111 0.226033 0.261778 0.216881 0.249386 0.223225 0.258171 0.252111 0.295868 0.261778 0.312472 0.249386 0.290893 0.258171 0.306521 0.295868 0.356513 0.312472 0.383954 0.290893 0.347841 0.306521 0.373455 0.356513 0.445719 0.383954 0.503916 0.347841 0.429453 0.373455 0.481951 0.175941 0.197666 0.177 0.199307 0.174866 0.196208 0.175941 0.197667 0.197666 0.226033 0.199307 0.22798 0.196208 0.223225 0.197667 0.226034 0.226033 0.261778 0.22798 0.265365 0.223225 0.258171 0.226034 0.261758 0.261778 0.312472 0.265365 0.321013 0.258171 0.306521 0.261758 0.312067 0.177 0.199307 0.175942 0.197667 0.175941 0.197667 0.174866 0.196209 0.199307 0.22798 0.197667 0.226034 0.197667 0.226034 0.196209 0.223226 0.22798 0.265365 0.226034 0.261781 0.226034 0.261758 0.223226 0.258173 0.265365 0.321013 0.261781 0.312475 0.261758 0.312067 0.258173 0.306524 0.175942 0.197667 0.172808 0.193271 0.174866 0.196209 0.171811 0.191858 0.197667 0.226034 0.193271 0.218983 0.196209 0.223226 0.191858 0.216884 0.226034 0.261781 0.218983 0.252118 0.223226 0.258173 0.216884 0.249389 0.261781 0.312475 0.252118 0.295881 0.258173 0.306524 0.249389 0.290901 0.312475 0.383958 0.295881 0.356504 0.306524 0.373454 0.290901 0.347883 0.383958 0.503902 0.356504 0.445814 0.373454 0.481969 0.347883 0.42932 0.172808 0.193271 0.167961 0.186529 0.171811 0.191858 0.167043 0.185275 0.193271 0.218983 0.186529 0.209334 0.191858 0.216884 0.185275 0.207573 0.218983 0.252118 0.209334 0.237703 0.216884 0.249389 0.207573 0.235106 0.252118 0.295881 0.237703 0.273201 0.249389 0.290901 0.235106 0.269291 0.295881 0.356504 0.273201 0.31924 0.290901 0.347883 0.269291 0.313137 0.356504 0.445814 0.31924 0.376889 0.347883 0.42932 0.313137 0.367118 0.71839 0.814539 0.499479 0.530278 0.655968 0.718802 0.481083 0.499933 0.814539 0.73383 0.530278 0.502782 0.718802 0.660536 0.499933 0.478838 0.167961 0.186529 0.161789 0.17819 0.167043 0.185275 0.160971 0.177098 0.186529 0.209334 0.17819 0.197786 0.185275 0.207573 0.177098 0.196294 0.209334 0.237703 0.197786 0.221186 0.207573 0.235106 0.196294 0.219112 0.237703 0.273201 0.221186 0.249208 0.235106 0.269291 0.219112 0.246253 0.273201 0.31924 0.249208 0.282047 0.269291 0.313137 0.246253 0.277796 0.31924 0.376889 0.282047 0.31918 0.313137 0.367118 0.277796 0.31309 0.376889 0.446632 0.31918 0.356173 0.367118 0.429549 0.31309 0.347669 0.446632 0.499479 0.356173 0.385068 0.429549 0.481083 0.347669 0.374758 0.499479 0.530278 0.385068 0.396584 0.481083 0.499933 0.374758 0.384873 0.530278 0.502782 0.396584 0.38431 0.499933 0.478838 0.384873 0.373706 0.161789 0.17819 0.154533 0.168973 0.160971 0.177098 0.153822 0.168041 0.17819 0.197786 0.168973 0.185417 0.177098 0.196294 0.168041 0.184189 0.197786 0.221186 0.185417 0.204325 0.196294 0.219112 0.184189 0.202686 0.221186 0.249208 0.204325 0.22575 0.219112 0.246253 0.202686 0.223547 0.249208 0.282047 0.22575 0.249296 0.246253 0.277796 0.223547 0.246337 0.282047 0.31918 0.249296 0.273234 0.277796 0.31309 0.246337 0.269319 0.31918 0.356173 0.273234 0.295846 0.31309 0.347669 0.269319 0.290876 0.356173 0.385068 0.295846 0.312052 0.347669 0.374758 0.290876 0.306335 0.385068 0.396584 0.312052 0.317787 0.374758 0.384873 0.306335 0.311706 0.396584 0.38431 0.317787 0.310026 0.384873 0.373706 0.311706 0.304419 0.153821 0.168039 0.160969 0.177096 0.151744 0.165332 0.158588 0.173934 0.168039 0.184186 0.177096 0.19629 0.165332 0.18064 0.173934 0.192011 0.184186 0.202679 0.19629 0.21911 0.18064 0.197986 0.192011 0.21322 0.202679 0.223551 0.21911 0.246222 0.197986 0.217304 0.21322 0.23795 0.223551 0.246284 0.246222 0.277834 0.217304 0.238025 0.23795 0.266089 0.246284 0.269419 0.277834 0.312515 0.238025 0.258674 0.266089 0.296328 0.269419 0.290862 0.312515 0.347622 0.258674 0.276803 0.296328 0.324269 0.290862 0.306328 0.347622 0.374748 0.276803 0.290744 0.324269 0.347591 0.306328 0.311702 0.374748 0.384869 0.290744 0.295429 0.347591 0.355907 0.311702 0.304416 0.384869 0.373702 0.295429 0.289339 0.355907 0.347018 0.160969 0.177096 0.167042 0.185273 0.158588 0.173934 0.16438 0.18166 0.177096 0.19629 0.185273 0.207571 0.173934 0.192011 0.18166 0.202508 0.19629 0.21911 0.207571 0.235093 0.192011 0.21322 0.202508 0.227802 0.21911 0.246222 0.235093 0.269339 0.21322 0.23795 0.227802 0.258657 0.246222 0.277834 0.269339 0.31258 0.23795 0.266089 0.258657 0.29635 0.277834 0.312515 0.31258 0.366156 0.266089 0.296328 0.29635 0.340577 0.312515 0.347622 0.366156 0.42968 0.296328 0.324269 0.340577 0.387731 0.347622 0.374748 0.42968 0.481059 0.324269 0.347591 0.387731 0.429695 0.374748 0.384869 0.481059 0.499931 0.347591 0.355907 0.429695 0.446705 0.384869 0.373702 0.499931 0.478832 0.355907 0.347018 0.446705 0.430743 0.167042 0.185273 0.17181 0.191857 0.16438 0.18166 0.168912 0.187826 0.185273 0.207571 0.191857 0.216881 0.18166 0.202508 0.187826 0.211173 0.207571 0.235093 0.216881 0.249386 0.202508 0.227802 0.211173 0.240358 0.235093 0.269339 0.249386 0.290893 0.227802 0.258657 0.240358 0.276765 0.269339 0.31258 0.290893 0.347841 0.258657 0.29635 0.276765 0.324437 0.31258 0.366156 0.347841 0.429453 0.29635 0.340577 0.324437 0.38773 0.17181 0.191857 0.174866 0.196208 0.168912 0.187826 0.171812 0.191861 0.191857 0.216881 0.196208 0.223225 0.187826 0.211173 0.191861 0.216883 0.216881 0.249386 0.223225 0.258171 0.211173 0.240358 0.216883 0.249387 0.249386 0.290893 0.258171 0.306521 0.240358 0.276765 0.249387 0.290904 0.290893 0.347841 0.306521 0.373455 0.276765 0.324437 0.290904 0.347756 0.347841 0.429453 0.373455 0.481951 0.324437 0.38773 0.347756 0.429442 0.174866 0.196208 0.175941 0.197667 0.171812 0.191861 0.172809 0.193275 0.196208 0.223225 0.197667 0.226034 0.191861 0.216883 0.193275 0.218981 0.223225 0.258171 0.226034 0.261758 0.216883 0.249387 0.218981 0.252139 0.258171 0.306521 0.261758 0.312067 0.249387 0.290904 0.252139 0.295956 0.306521 0.373455 0.312067 0.387478 0.290904 0.347756 0.295956 0.356657 0.373455 0.481951 0.387478 0.507407 0.347756 0.429442 0.356657 0.445034 0.175941 0.197667 0.174866 0.196209 0.172809 0.193275 0.171813 0.191861 0.197667 0.226034 0.196209 0.223226 0.193275 0.218981 0.191861 0.216884 0.226034 0.261758 0.223226 0.258173 0.218981 0.252139 0.216884 0.249388 0.261758 0.312067 0.258173 0.306524 0.252139 0.295956 0.249388 0.290905 0.312067 0.387478 0.306524 0.373454 0.295956 0.356657 0.290905 0.347757 0.387478 0.507407 0.373454 0.481969 0.356657 0.445034 0.347757 0.429436 0.174866 0.196209 0.171811 0.191858 0.171813 0.191861 0.168912 0.187827 0.196209 0.223226 0.191858 0.216884 0.191861 0.216884 0.187827 0.211174 0.223226 0.258173 0.216884 0.249389 0.216884 0.249388 0.211174 0.240362 0.258173 0.306524 0.249389 0.290901 0.249388 0.290905 0.240362 0.276763 0.306524 0.373454 0.290901 0.347883 0.290905 0.347757 0.276763 0.324456 0.373454 0.481969 0.347883 0.42932 0.347757 0.429436 0.324456 0.38778 0.171811 0.191858 0.167043 0.185275 0.168912 0.187827 0.164381 0.181661 0.191858 0.216884 0.185275 0.207573 0.187827 0.211174 0.181661 0.20251 0.216884 0.249389 0.207573 0.235106 0.211174 0.240362 0.20251 0.227801 0.249389 0.290901 0.235106 0.269291 0.240362 0.276763 0.227801 0.258686 0.290901 0.347883 0.269291 0.313137 0.276763 0.324456 0.258686 0.29622 0.347883 0.42932 0.313137 0.367118 0.324456 0.38778 0.29622 0.340345 0.167043 0.185275 0.160971 0.177098 0.164381 0.181661 0.158588 0.173935 0.185275 0.207573 0.177098 0.196294 0.181661 0.20251 0.173935 0.192013 0.207573 0.235106 0.196294 0.219112 0.20251 0.227801 0.192013 0.213223 0.235106 0.269291 0.219112 0.246253 0.227801 0.258686 0.213223 0.237952 0.269291 0.313137 0.246253 0.277796 0.258686 0.29622 0.237952 0.26608 0.313137 0.367118 0.277796 0.31309 0.29622 0.340345 0.26608 0.296194 0.367118 0.429549 0.31309 0.347669 0.340345 0.387781 0.296194 0.32429 0.429549 0.481083 0.347669 0.374758 0.387781 0.42969 0.32429 0.347594 0.481083 0.499933 0.374758 0.384873 0.42969 0.446709 0.347594 0.355909 0.499933 0.478838 0.384873 0.373706 0.446709 0.430744 0.355909 0.34702 0.160971 0.177098 0.153822 0.168041 0.158588 0.173935 0.151745 0.165333 0.177098 0.196294 0.168041 0.184189 0.173935 0.192013 0.165333 0.180642 0.196294 0.219112 0.184189 0.202686 0.192013 0.213223 0.180642 0.197987 0.219112 0.246253 0.202686 0.223547 0.213223 0.237952 0.197987 0.217305 0.246253 0.277796 0.223547 0.246337 0.237952 0.26608 0.217305 0.238027 0.277796 0.31309 0.246337 0.269319 0.26608 0.296194 0.238027 0.25873 0.31309 0.347669 0.269319 0.290876 0.296194 0.32429 0.25873 0.276796 0.347669 0.374758 0.290876 0.306335 0.32429 0.347594 0.276796 0.290746 0.374758 0.384873 0.306335 0.311706 0.347594 0.355909 0.290746 0.295431 0.384873 0.373706 0.311706 0.304419 0.355909 0.34702 0.295431 0.289341 0.151744 0.165332 0.158588 0.173934 0.148458 0.161091 0.154837 0.169015 0.165332 0.18064 0.173934 0.192011 0.161091 0.175149 0.169015 0.185454 0.18064 0.197986 0.192011 0.21322 0.175149 0.190823 0.185454 0.204353 0.197986 0.217304 0.21322 0.23795 0.190823 0.207938 0.204353 0.225814 0.217304 0.238025 0.23795 0.266089 0.207938 0.225892 0.225814 0.249441 0.238025 0.258674 0.266089 0.296328 0.225892 0.243384 0.249441 0.273821 0.258674 0.276803 0.296328 0.324269 0.243384 0.258649 0.273821 0.296128 0.276803 0.290744 0.324269 0.347591 0.258649 0.269115 0.296128 0.312946 0.290744 0.295429 0.347591 0.355907 0.269115 0.272854 0.312946 0.318889 0.295429 0.289339 0.355907 0.347018 0.272854 0.268471 0.318889 0.312659 0.158588 0.173934 0.16438 0.18166 0.154837 0.169015 0.160214 0.176075 0.173934 0.192011 0.18166 0.202508 0.169015 0.185454 0.176075 0.194846 0.192011 0.21322 0.202508 0.227802 0.185454 0.204353 0.194846 0.217082 0.21322 0.23795 0.227802 0.258657 0.204353 0.225814 0.217082 0.243336 0.23795 0.266089 0.258657 0.29635 0.225814 0.249441 0.243336 0.273822 0.266089 0.296328 0.29635 0.340577 0.249441 0.273821 0.273822 0.307401 0.296328 0.324269 0.340577 0.387731 0.273821 0.296128 0.307401 0.340304 0.324269 0.347591 0.387731 0.429695 0.296128 0.312946 0.340304 0.367047 0.347591 0.355907 0.429695 0.446705 0.312946 0.318889 0.367047 0.376784 0.355907 0.347018 0.446705 0.430743 0.318889 0.312659 0.376784 0.36732 0.16438 0.18166 0.168912 0.187826 0.160214 0.176075 0.164394 0.181671 0.18166 0.202508 0.187826 0.211173 0.176075 0.194846 0.181671 0.202508 0.202508 0.227802 0.211173 0.240358 0.194846 0.217082 0.202508 0.227781 0.227802 0.258657 0.240358 0.276765 0.217082 0.243336 0.227781 0.258591 0.258657 0.29635 0.276765 0.324437 0.243336 0.273822 0.258591 0.2963 0.29635 0.340577 0.324437 0.38773 0.273822 0.307401 0.2963 0.340462 0.168912 0.187826 0.171812 0.191861 0.164394 0.181671 0.167059 0.185288 0.187826 0.211173 0.191861 0.216883 0.181671 0.202508 0.185288 0.207569 0.211173 0.240358 0.216883 0.249387 0.202508 0.227781 0.207569 0.235101 0.240358 0.276765 0.249387 0.290904 0.227781 0.258591 0.235101 0.269258 0.276765 0.324437 0.290904 0.347756 0.258591 0.2963 0.269258 0.311942 0.324437 0.38773 0.347756 0.429442 0.2963 0.340462 0.311942 0.366283 0.171812 0.191861 0.172809 0.193275 0.167059 0.185288 0.167976 0.186543 0.191861 0.216883 0.193275 0.218981 0.185288 0.207569 0.186543 0.209337 0.216883 0.249387 0.218981 0.252139 0.207569 0.235101 0.209337 0.237657 0.249387 0.290904 0.252139 0.295956 0.235101 0.269258 0.237657 0.273764 0.290904 0.347756 0.295956 0.356657 0.269258 0.311942 0.273764 0.318978 0.347756 0.429442 0.356657 0.445034 0.311942 0.366283 0.318978 0.377381 0.656041 0.718858 0.718529 0.814699 0.481049 0.499913 0.49948 0.53026 0.718858 0.660336 0.814699 0.733426 0.499913 0.47872 0.53026 0.5026 0.172809 0.193275 0.171813 0.191861 0.167976 0.186543 0.167059 0.185288 0.193275 0.218981 0.191861 0.216884 0.186543 0.209337 0.185288 0.207569 0.218981 0.252139 0.216884 0.249388 0.209337 0.237657 0.207569 0.235101 0.252139 0.295956 0.249388 0.290905 0.237657 0.273764 0.235101 0.269257 0.295956 0.356657 0.290905 0.347757 0.273764 0.318978 0.269257 0.311942 0.356657 0.445034 0.347757 0.429436 0.318978 0.377381 0.311942 0.366284 0.718529 0.814699 0.656039 0.718853 0.49948 0.53026 0.481048 0.499912 0.814699 0.733426 0.718853 0.660331 0.53026 0.5026 0.499912 0.478719 0.171813 0.191861 0.168912 0.187827 0.167059 0.185288 0.164394 0.181671 0.191861 0.216884 0.187827 0.211174 0.185288 0.207569 0.181671 0.202508 0.216884 0.249388 0.211174 0.240362 0.207569 0.235101 0.202508 0.22778 0.249388 0.290905 0.240362 0.276763 0.235101 0.269257 0.22778 0.258587 0.290905 0.347757 0.276763 0.324456 0.269257 0.311942 0.258587 0.296284 0.347757 0.429436 0.324456 0.38778 0.311942 0.366284 0.296284 0.340441 0.168912 0.187827 0.164381 0.181661 0.164394 0.181671 0.160214 0.176076 0.187827 0.211174 0.181661 0.20251 0.181671 0.202508 0.176076 0.194846 0.211174 0.240362 0.20251 0.227801 0.202508 0.22778 0.194846 0.217082 0.240362 0.276763 0.227801 0.258686 0.22778 0.258587 0.217082 0.243324 0.276763 0.324456 0.258686 0.29622 0.258587 0.296284 0.243324 0.273801 0.324456 0.38778 0.29622 0.340345 0.296284 0.340441 0.273801 0.307385 0.164381 0.181661 0.158588 0.173935 0.160214 0.176076 0.154838 0.169015 0.181661 0.20251 0.173935 0.192013 0.176076 0.194846 0.169015 0.185454 0.20251 0.227801 0.192013 0.213223 0.194846 0.217082 0.185454 0.204352 0.227801 0.258686 0.213223 0.237952 0.217082 0.243324 0.204352 0.225807 0.258686 0.29622 0.237952 0.26608 0.243324 0.273801 0.225807 0.249413 0.29622 0.340345 0.26608 0.296194 0.273801 0.307385 0.249413 0.273801 0.340345 0.387781 0.296194 0.32429 0.307385 0.340282 0.273801 0.296111 0.387781 0.42969 0.32429 0.347594 0.340282 0.367048 0.296111 0.312946 0.42969 0.446709 0.347594 0.355909 0.367048 0.376783 0.312946 0.318888 0.446709 0.430744 0.355909 0.34702 0.376783 0.36732 0.318888 0.312659 0.158588 0.173935 0.151745 0.165333 0.154838 0.169015 0.148458 0.161091 0.173935 0.192013 0.165333 0.180642 0.169015 0.185454 0.161091 0.175149 0.192013 0.213223 0.180642 0.197987 0.185454 0.204352 0.175149 0.190821 0.213223 0.237952 0.197987 0.217305 0.204352 0.225807 0.190821 0.207932 0.237952 0.26608 0.217305 0.238027 0.225807 0.249413 0.207932 0.22588 0.26608 0.296194 0.238027 0.25873 0.249413 0.273801 0.22588 0.243359 0.296194 0.32429 0.25873 0.276796 0.273801 0.296111 0.243359 0.258642 0.32429 0.347594 0.276796 0.290746 0.296111 0.312946 0.258642 0.269113 0.347594 0.355909 0.290746 0.295431 0.312946 0.318888 0.269113 0.272854 0.355909 0.34702 0.295431 0.289341 0.318888 0.312659 0.272854 0.268471 0.148458 0.161091 0.154837 0.169015 0.144185 0.155654 0.149997 0.162769 0.161091 0.175149 0.169015 0.185454 0.155654 0.16822 0.162769 0.17729 0.175149 0.190823 0.185454 0.204353 0.16822 0.181956 0.17729 0.193579 0.190823 0.207938 0.204353 0.225814 0.181956 0.196605 0.193579 0.211511 0.207938 0.225892 0.225814 0.249441 0.196605 0.211572 0.211511 0.230519 0.225892 0.243384 0.249441 0.273821 0.211572 0.225817 0.230519 0.249354 0.243384 0.258649 0.273821 0.296128 0.225817 0.23788 0.249354 0.265912 0.258649 0.269115 0.296128 0.312946 0.23788 0.246085 0.265912 0.277545 0.269115 0.272854 0.312946 0.318889 0.246085 0.248923 0.277545 0.281679 0.272854 0.268471 0.318889 0.312659 0.248923 0.245638 0.281679 0.277337 0.154837 0.169015 0.160214 0.176075 0.149997 0.162769 0.154871 0.169046 0.169015 0.185454 0.176075 0.194846 0.162769 0.17729 0.169046 0.185443 0.185454 0.204353 0.194846 0.217082 0.17729 0.193579 0.185443 0.204315 0.204353 0.225814 0.217082 0.243336 0.193579 0.211511 0.204315 0.225748 0.225814 0.249441 0.243336 0.273822 0.211511 0.230519 0.225748 0.249359 0.249441 0.273821 0.273822 0.307401 0.230519 0.249354 0.249359 0.273719 0.273821 0.296128 0.307401 0.340304 0.249354 0.265912 0.273719 0.29608 0.296128 0.312946 0.340304 0.367047 0.265912 0.277545 0.29608 0.312275 0.312946 0.318889 0.367047 0.376784 0.277545 0.281679 0.312275 0.318278 0.318889 0.312659 0.376784 0.36732 0.281679 0.277337 0.318278 0.312791 0.160214 0.176075 0.164394 0.181671 0.154871 0.169046 0.158638 0.173979 0.176075 0.194846 0.181671 0.202508 0.169046 0.185443 0.173979 0.192001 0.194846 0.217082 0.202508 0.227781 0.185443 0.204315 0.192001 0.213164 0.217082 0.243336 0.227781 0.258591 0.204315 0.225748 0.213164 0.237825 0.243336 0.273822 0.258591 0.2963 0.225748 0.249359 0.237825 0.265891 0.273822 0.307401 0.2963 0.340462 0.249359 0.273719 0.265891 0.29618 0.307401 0.340304 0.340462 0.387689 0.273719 0.29608 0.29618 0.324105 0.340304 0.367047 0.387689 0.42967 0.29608 0.312275 0.324105 0.347439 0.367047 0.376784 0.42967 0.446701 0.312275 0.318278 0.347439 0.355848 0.376784 0.36732 0.446701 0.430715 0.318278 0.312791 0.355848 0.347083 0.164394 0.181671 0.167059 0.185288 0.158638 0.173979 0.161026 0.177147 0.181671 0.202508 0.185288 0.207569 0.173979 0.192001 0.177147 0.196283 0.202508 0.227781 0.207569 0.235101 0.192001 0.213164 0.196283 0.219066 0.227781 0.258591 0.235101 0.269258 0.213164 0.237825 0.219066 0.246105 0.258591 0.2963 0.269258 0.311942 0.237825 0.265891 0.246105 0.27751 0.2963 0.340462 0.311942 0.366283 0.265891 0.29618 0.27751 0.311792 0.340462 0.387689 0.366283 0.429612 0.29618 0.324105 0.311792 0.347413 0.387689 0.42967 0.429612 0.481049 0.324105 0.347439 0.347413 0.374645 0.42967 0.446701 0.481049 0.499913 0.347439 0.355848 0.374645 0.38488 0.446701 0.430715 0.499913 0.47872 0.355848 0.347083 0.38488 0.373799 0.167059 0.185288 0.167976 0.186543 0.161026 0.177147 0.161845 0.178242 0.185288 0.207569 0.186543 0.209337 0.177147 0.196283 0.178242 0.197774 0.207569 0.235101 0.209337 0.237657 0.196283 0.219066 0.197774 0.221158 0.235101 0.269258 0.237657 0.273764 0.219066 0.246105 0.221158 0.249114 0.269258 0.311942 0.273764 0.318978 0.246105 0.27751 0.249114 0.282187 0.311942 0.366283 0.318978 0.377381 0.27751 0.311792 0.282187 0.318818 0.366283 0.429612 0.377381 0.446503 0.311792 0.347413 0.318818 0.355991 0.429612 0.481049 0.446503 0.49948 0.347413 0.374645 0.355991 0.38