<?xml version="1.0" ?> 
<!-- 
# vtk DataFile Version 3.0
#This file was generated by the deal.II library on 16:51:27 at 2019/11/27
-->
<VTKFile type="UnstructuredGrid" version="0.1" byte_order="LittleEndian">
<UnstructuredGrid>
<Piece NumberOfPoints="60920" NumberOfCells="7615" >
  <Points>
    <DataArray type="Float32" NumberOfComponents="3" format="ascii">
-50 -50 0
-40 -50 0
-50 -40 0
-40 -40 0
-50 -50 10
-40 -50 10
-50 -40 10
-40 -40 10
-40 -50 0
-30 -50 0
-40 -40 0
-30 -40 0
-40 -50 10
-30 -50 10
-40 -40 10
-30 -40 10
-30 -50 0
-20 -50 0
-30 -40 0
-20 -40 0
-30 -50 10
-20 -50 10
-30 -40 10
-20 -40 10
-20 -50 0
-10 -50 0
-20 -40 0
-10 -40 0
-20 -50 10
-10 -50 10
-20 -40 10
-10 -40 10
-10 -50 0
0 -50 0
-10 -40 0
0 -40 0
-10 -50 10
0 -50 10
-10 -40 10
0 -40 10
0 -50 0
10 -50 0
0 -40 0
10 -40 0
0 -50 10
10 -50 10
0 -40 10
10 -40 10
10 -50 0
20 -50 0
10 -40 0
20 -40 0
10 -50 10
20 -50 10
10 -40 10
20 -40 10
20 -50 0
30 -50 0
20 -40 0
30 -40 0
20 -50 10
30 -50 10
20 -40 10
30 -40 10
30 -50 0
40 -50 0
30 -40 0
40 -40 0
30 -50 10
40 -50 10
30 -40 10
40 -40 10
40 -50 0
50 -50 0
40 -40 0
50 -40 0
40 -50 10
50 -50 10
40 -40 10
50 -40 10
-50 -40 0
-40 -40 0
-50 -30 0
-40 -30 0
-50 -40 10
-40 -40 10
-50 -30 10
-40 -30 10
-40 -40 0
-30 -40 0
-40 -30 0
-30 -30 0
-40 -40 10
-30 -40 10
-40 -30 10
-30 -30 10
-30 -40 0
-20 -40 0
-30 -30 0
-20 -30 0
-30 -40 10
-20 -40 10
-30 -30 10
-20 -30 10
-20 -40 0
-10 -40 0
-20 -30 0
-10 -30 0
-20 -40 10
-10 -40 10
-20 -30 10
-10 -30 10
-10 -40 0
0 -40 0
-10 -30 0
0 -30 0
-10 -40 10
0 -40 10
-10 -30 10
0 -30 10
0 -40 0
10 -40 0
0 -30 0
10 -30 0
0 -40 10
10 -40 10
0 -30 10
10 -30 10
10 -40 0
20 -40 0
10 -30 0
20 -30 0
10 -40 10
20 -40 10
10 -30 10
20 -30 10
20 -40 0
30 -40 0
20 -30 0
30 -30 0
20 -40 10
30 -40 10
20 -30 10
30 -30 10
30 -40 0
40 -40 0
30 -30 0
40 -30 0
30 -40 10
40 -40 10
30 -30 10
40 -30 10
40 -40 0
50 -40 0
40 -30 0
50 -30 0
40 -40 10
50 -40 10
40 -30 10
50 -30 10
-50 -30 0
-40 -30 0
-50 -20 0
-40 -20 0
-50 -30 10
-40 -30 10
-50 -20 10
-40 -20 10
-40 -30 0
-30 -30 0
-40 -20 0
-30 -20 0
-40 -30 10
-30 -30 10
-40 -20 10
-30 -20 10
-30 -30 0
-20 -30 0
-30 -20 0
-20 -20 0
-30 -30 10
-20 -30 10
-30 -20 10
-20 -20 10
-20 -30 0
-10 -30 0
-20 -20 0
-10 -20 0
-20 -30 10
-10 -30 10
-20 -20 10
-10 -20 10
-10 -30 0
0 -30 0
-10 -20 0
0 -20 0
-10 -30 10
0 -30 10
-10 -20 10
0 -20 10
0 -30 0
10 -30 0
0 -20 0
10 -20 0
0 -30 10
10 -30 10
0 -20 10
10 -20 10
-50 -20 0
-40 -20 0
-50 -10 0
-40 -10 0
-50 -20 10
-40 -20 10
-50 -10 10
-40 -10 10
-40 -20 0
-30 -20 0
-40 -10 0
-30 -10 0
-40 -20 10
-30 -20 10
-40 -10 10
-30 -10 10
-30 -20 0
-20 -20 0
-30 -10 0
-20 -10 0
-30 -20 10
-20 -20 10
-30 -10 10
-20 -10 10
-20 -20 0
-10 -20 0
-20 -10 0
-10 -10 0
-20 -20 10
-10 -20 10
-20 -10 10
-10 -10 10
-10 -20 0
0 -20 0
-10 -10 0
0 -10 0
-10 -20 10
0 -20 10
-10 -10 10
0 -10 10
-50 -10 0
-40 -10 0
-50 0 0
-40 0 0
-50 -10 10
-40 -10 10
-50 0 10
-40 0 10
-40 -10 0
-30 -10 0
-40 0 0
-30 0 0
-40 -10 10
-30 -10 10
-40 0 10
-30 0 10
-30 -10 0
-20 -10 0
-30 0 0
-20 0 0
-30 -10 10
-20 -10 10
-30 0 10
-20 0 10
-20 -10 0
-10 -10 0
-20 0 0
-10 0 0
-20 -10 10
-10 -10 10
-20 0 10
-10 0 10
-50 0 0
-40 0 0
-50 10 0
-40 10 0
-50 0 10
-40 0 10
-50 10 10
-40 10 10
-40 0 0
-30 0 0
-40 10 0
-30 10 0
-40 0 10
-30 0 10
-40 10 10
-30 10 10
-30 0 0
-20 0 0
-30 10 0
-20 10 0
-30 0 10
-20 0 10
-30 10 10
-20 10 10
-20 0 0
-10 0 0
-20 10 0
-10 10 0
-20 0 10
-10 0 10
-20 10 10
-10 10 10
-50 10 0
-40 10 0
-50 20 0
-40 20 0
-50 10 10
-40 10 10
-50 20 10
-40 20 10
-40 10 0
-30 10 0
-40 20 0
-30 20 0
-40 10 10
-30 10 10
-40 20 10
-30 20 10
-30 10 0
-20 10 0
-30 20 0
-20 20 0
-30 10 10
-20 10 10
-30 20 10
-20 20 10
-20 10 0
-10 10 0
-20 20 0
-10 20 0
-20 10 10
-10 10 10
-20 20 10
-10 20 10
-10 10 0
0 10 0
-10 20 0
0 20 0
-10 10 10
0 10 10
-10 20 10
0 20 10
-50 20 0
-40 20 0
-50 30 0
-40 30 0
-50 20 10
-40 20 10
-50 30 10
-40 30 10
-40 20 0
-30 20 0
-40 30 0
-30 30 0
-40 20 10
-30 20 10
-40 30 10
-30 30 10
-30 20 0
-20 20 0
-30 30 0
-20 30 0
-30 20 10
-20 20 10
-30 30 10
-20 30 10
-20 20 0
-10 20 0
-20 30 0
-10 30 0
-20 20 10
-10 20 10
-20 30 10
-10 30 10
-10 20 0
0 20 0
-10 30 0
0 30 0
-10 20 10
0 20 10
-10 30 10
0 30 10
0 20 0
10 20 0
0 30 0
10 30 0
0 20 10
10 20 10
0 30 10
10 30 10
-50 30 0
-40 30 0
-50 40 0
-40 40 0
-50 30 10
-40 30 10
-50 40 10
-40 40 10
-40 30 0
-30 30 0
-40 40 0
-30 40 0
-40 30 10
-30 30 10
-40 40 10
-30 40 10
-30 30 0
-20 30 0
-30 40 0
-20 40 0
-30 30 10
-20 30 10
-30 40 10
-20 40 10
-20 30 0
-10 30 0
-20 40 0
-10 40 0
-20 30 10
-10 30 10
-20 40 10
-10 40 10
-10 30 0
0 30 0
-10 40 0
0 40 0
-10 30 10
0 30 10
-10 40 10
0 40 10
0 30 0
10 30 0
0 40 0
10 40 0
0 30 10
10 30 10
0 40 10
10 40 10
10 30 0
20 30 0
10 40 0
20 40 0
10 30 10
20 30 10
10 40 10
20 40 10
20 30 0
30 30 0
20 40 0
30 40 0
20 30 10
30 30 10
20 40 10
30 40 10
30 30 0
40 30 0
30 40 0
40 40 0
30 30 10
40 30 10
30 40 10
40 40 10
40 30 0
50 30 0
40 40 0
50 40 0
40 30 10
50 30 10
40 40 10
50 40 10
-50 40 0
-40 40 0
-50 50 0
-40 50 0
-50 40 10
-40 40 10
-50 50 10
-40 50 10
-40 40 0
-30 40 0
-40 50 0
-30 50 0
-40 40 10
-30 40 10
-40 50 10
-30 50 10
-30 40 0
-20 40 0
-30 50 0
-20 50 0
-30 40 10
-20 40 10
-30 50 10
-20 50 10
-20 40 0
-10 40 0
-20 50 0
-10 50 0
-20 40 10
-10 40 10
-20 50 10
-10 50 10
-10 40 0
0 40 0
-10 50 0
0 50 0
-10 40 10
0 40 10
-10 50 10
0 50 10
0 40 0
10 40 0
0 50 0
10 50 0
0 40 10
10 40 10
0 50 10
10 50 10
10 40 0
20 40 0
10 50 0
20 50 0
10 40 10
20 40 10
10 50 10
20 50 10
20 40 0
30 40 0
20 50 0
30 50 0
20 40 10
30 40 10
20 50 10
30 50 10
30 40 0
40 40 0
30 50 0
40 50 0
30 40 10
40 40 10
30 50 10
40 50 10
40 40 0
50 40 0
40 50 0
50 50 0
40 40 10
50 40 10
40 50 10
50 50 10
-50 -50 10
-40 -50 10
-50 -40 10
-40 -40 10
-50 -50 20
-40 -50 20
-50 -40 20
-40 -40 20
-40 -50 10
-30 -50 10
-40 -40 10
-30 -40 10
-40 -50 20
-30 -50 20
-40 -40 20
-30 -40 20
-30 -50 10
-20 -50 10
-30 -40 10
-20 -40 10
-30 -50 20
-20 -50 20
-30 -40 20
-20 -40 20
-20 -50 10
-10 -50 10
-20 -40 10
-10 -40 10
-20 -50 20
-10 -50 20
-20 -40 20
-10 -40 20
-10 -50 10
0 -50 10
-10 -40 10
0 -40 10
-10 -50 20
0 -50 20
-10 -40 20
0 -40 20
0 -50 10
10 -50 10
0 -40 10
10 -40 10
0 -50 20
10 -50 20
0 -40 20
10 -40 20
10 -50 10
20 -50 10
10 -40 10
20 -40 10
10 -50 20
20 -50 20
10 -40 20
20 -40 20
20 -50 10
30 -50 10
20 -40 10
30 -40 10
20 -50 20
30 -50 20
20 -40 20
30 -40 20
30 -50 10
40 -50 10
30 -40 10
40 -40 10
30 -50 20
40 -50 20
30 -40 20
40 -40 20
40 -50 10
50 -50 10
40 -40 10
50 -40 10
40 -50 20
50 -50 20
40 -40 20
50 -40 20
-50 -40 10
-40 -40 10
-50 -30 10
-40 -30 10
-50 -40 20
-40 -40 20
-50 -30 20
-40 -30 20
-40 -40 10
-30 -40 10
-40 -30 10
-30 -30 10
-40 -40 20
-30 -40 20
-40 -30 20
-30 -30 20
-30 -40 10
-20 -40 10
-30 -30 10
-20 -30 10
-30 -40 20
-20 -40 20
-30 -30 20
-20 -30 20
-20 -40 10
-10 -40 10
-20 -30 10
-10 -30 10
-20 -40 20
-10 -40 20
-20 -30 20
-10 -30 20
-10 -40 10
0 -40 10
-10 -30 10
0 -30 10
-10 -40 20
0 -40 20
-10 -30 20
0 -30 20
0 -40 10
10 -40 10
0 -30 10
10 -30 10
0 -40 20
10 -40 20
0 -30 20
10 -30 20
10 -40 10
20 -40 10
10 -30 10
20 -30 10
10 -40 20
20 -40 20
10 -30 20
20 -30 20
20 -40 10
30 -40 10
20 -30 10
30 -30 10
20 -40 20
30 -40 20
20 -30 20
30 -30 20
30 -40 10
40 -40 10
30 -30 10
40 -30 10
30 -40 20
40 -40 20
30 -30 20
40 -30 20
-50 -30 10
-40 -30 10
-50 -20 10
-40 -20 10
-50 -30 20
-40 -30 20
-50 -20 20
-40 -20 20
-40 -30 10
-30 -30 10
-40 -20 10
-30 -20 10
-40 -30 20
-30 -30 20
-40 -20 20
-30 -20 20
-30 -30 10
-20 -30 10
-30 -20 10
-20 -20 10
-30 -30 20
-20 -30 20
-30 -20 20
-20 -20 20
-20 -30 10
-10 -30 10
-20 -20 10
-10 -20 10
-20 -30 20
-10 -30 20
-20 -20 20
-10 -20 20
-10 -30 10
0 -30 10
-10 -20 10
0 -20 10
-10 -30 20
0 -30 20
-10 -20 20
0 -20 20
0 -30 10
10 -30 10
0 -20 10
10 -20 10
0 -30 20
10 -30 20
0 -20 20
10 -20 20
-50 -20 10
-40 -20 10
-50 -10 10
-40 -10 10
-50 -20 20
-40 -20 20
-50 -10 20
-40 -10 20
-40 -20 10
-30 -20 10
-40 -10 10
-30 -10 10
-40 -20 20
-30 -20 20
-40 -10 20
-30 -10 20
-30 -20 10
-20 -20 10
-30 -10 10
-20 -10 10
-30 -20 20
-20 -20 20
-30 -10 20
-20 -10 20
-20 -20 10
-10 -20 10
-20 -10 10
-10 -10 10
-20 -20 20
-10 -20 20
-20 -10 20
-10 -10 20
-10 -20 10
0 -20 10
-10 -10 10
0 -10 10
-10 -20 20
0 -20 20
-10 -10 20
0 -10 20
0 -20 10
10 -20 10
0 -10 10
10 -10 10
0 -20 20
10 -20 20
0 -10 20
10 -10 20
-50 -10 10
-40 -10 10
-50 0 10
-40 0 10
-50 -10 20
-40 -10 20
-50 0 20
-40 0 20
-40 -10 10
-30 -10 10
-40 0 10
-30 0 10
-40 -10 20
-30 -10 20
-40 0 20
-30 0 20
-30 -10 10
-20 -10 10
-30 0 10
-20 0 10
-30 -10 20
-20 -10 20
-30 0 20
-20 0 20
-20 -10 10
-10 -10 10
-20 0 10
-10 0 10
-20 -10 20
-10 -10 20
-20 0 20
-10 0 20
-10 -10 10
0 -10 10
-10 0 10
0 0 10
-10 -10 20
0 -10 20
-10 0 20
0 0 20
0 -10 10
10 -10 10
0 0 10
10 0 10
0 -10 20
10 -10 20
0 0 20
10 0 20
-50 0 10
-40 0 10
-50 10 10
-40 10 10
-50 0 20
-40 0 20
-50 10 20
-40 10 20
-40 0 10
-30 0 10
-40 10 10
-30 10 10
-40 0 20
-30 0 20
-40 10 20
-30 10 20
-30 0 10
-20 0 10
-30 10 10
-20 10 10
-30 0 20
-20 0 20
-30 10 20
-20 10 20
-20 0 10
-10 0 10
-20 10 10
-10 10 10
-20 0 20
-10 0 20
-20 10 20
-10 10 20
-10 0 10
0 0 10
-10 10 10
0 10 10
-10 0 20
0 0 20
-10 10 20
0 10 20
-50 10 10
-40 10 10
-50 20 10
-40 20 10
-50 10 20
-40 10 20
-50 20 20
-40 20 20
-40 10 10
-30 10 10
-40 20 10
-30 20 10
-40 10 20
-30 10 20
-40 20 20
-30 20 20
-30 10 10
-20 10 10
-30 20 10
-20 20 10
-30 10 20
-20 10 20
-30 20 20
-20 20 20
-20 10 10
-10 10 10
-20 20 10
-10 20 10
-20 10 20
-10 10 20
-20 20 20
-10 20 20
-10 10 10
0 10 10
-10 20 10
0 20 10
-10 10 20
0 10 20
-10 20 20
0 20 20
0 10 10
10 10 10
0 20 10
10 20 10
0 10 20
10 10 20
0 20 20
10 20 20
-50 20 10
-40 20 10
-50 30 10
-40 30 10
-50 20 20
-40 20 20
-50 30 20
-40 30 20
-40 20 10
-30 20 10
-40 30 10
-30 30 10
-40 20 20
-30 20 20
-40 30 20
-30 30 20
-30 20 10
-20 20 10
-30 30 10
-20 30 10
-30 20 20
-20 20 20
-30 30 20
-20 30 20
-20 20 10
-10 20 10
-20 30 10
-10 30 10
-20 20 20
-10 20 20
-20 30 20
-10 30 20
-10 20 10
0 20 10
-10 30 10
0 30 10
-10 20 20
0 20 20
-10 30 20
0 30 20
0 20 10
10 20 10
0 30 10
10 30 10
0 20 20
10 20 20
0 30 20
10 30 20
[...]
  <PointData Scalars="scalars">
    <DataArray type="Float32" Name="u" format="ascii">
0.154245 0.168656 0.161489 0.177857 0.153536 0.167726 0.160673 0.176768 0.168656 0.185062 0.177857 0.197411 0.167726 0.183838 0.176768 0.195921 0.185062 0.203922 0.197411 0.22075 0.183838 0.202285 0.195921 0.218687 0.203922 0.225294 0.22075 0.248697 0.202285 0.223106 0.218687 0.245726 0.225294 0.248802 0.248697 0.281509 0.223106 0.245803 0.245726 0.277265 0.248802 0.272701 0.281509 0.31891 0.245803 0.269001 0.277265 0.31191 0.272701 0.295699 0.31891 0.355917 0.269001 0.290653 0.31191 0.347246 0.295699 0.312373 0.355917 0.385713 0.290653 0.306502 0.347246 0.375132 0.312373 0.318481 0.385713 0.397821 0.306502 0.312237 0.375132 0.386002 0.318481 0.3108 0.397821 0.385526 0.312237 0.305029 0.386002 0.374853 0.161489 0.177857 0.167652 0.186186 0.160673 0.176768 0.166737 0.184933 0.177857 0.197411 0.186186 0.208943 0.176768 0.195921 0.184933 0.207187 0.197411 0.22075 0.208943 0.237258 0.195921 0.218687 0.207187 0.23465 0.22075 0.248697 0.237258 0.272597 0.218687 0.245726 0.23465 0.268807 0.248697 0.281509 0.272597 0.31884 0.245726 0.277265 0.268807 0.311858 0.281509 0.31891 0.31884 0.376583 0.277265 0.31191 0.311858 0.365256 0.31891 0.355917 0.376583 0.44409 0.31191 0.347246 0.365256 0.427788 0.355917 0.385713 0.44409 0.506579 0.347246 0.375132 0.427788 0.483445 0.385713 0.397821 0.506579 0.531208 0.375132 0.386002 0.483445 0.505348 0.397821 0.385526 0.531208 0.504496 0.386002 0.374853 0.505348 0.480428 0.167652 0.186186 0.172495 0.192921 0.166737 0.184933 0.1715 0.191511 0.186186 0.208943 0.192921 0.218589 0.184933 0.207187 0.191511 0.21649 0.208943 0.237258 0.218589 0.251668 0.207187 0.23465 0.21649 0.248939 0.237258 0.272597 0.251668 0.295398 0.23465 0.268807 0.248939 0.290372 0.272597 0.31884 0.295398 0.35586 0.268807 0.311858 0.290372 0.347234 0.31884 0.376583 0.35586 0.443377 0.311858 0.365256 0.347234 0.427583 0.172495 0.192921 0.175627 0.197315 0.1715 0.191511 0.174553 0.195859 0.192921 0.218589 0.197315 0.225641 0.191511 0.21649 0.195859 0.222833 0.218589 0.251668 0.225641 0.26135 0.21649 0.248939 0.222833 0.257726 0.251668 0.295398 0.26135 0.312007 0.248939 0.290372 0.257726 0.305721 0.295398 0.35586 0.312007 0.385185 0.290372 0.347234 0.305721 0.375219 0.175627 0.197315 0.176684 0.198955 0.174553 0.195859 0.175627 0.197317 0.197315 0.225641 0.198955 0.227591 0.195859 0.222833 0.197317 0.225644 0.225641 0.26135 0.227591 0.264953 0.222833 0.257726 0.225644 0.261348 0.26135 0.312007 0.264953 0.320703 0.257726 0.305721 0.261348 0.311926 0.176684 0.198955 0.175627 0.197315 0.175627 0.197317 0.174553 0.195859 0.198955 0.227591 0.197315 0.225642 0.197317 0.225644 0.195859 0.222834 0.227591 0.264953 0.225642 0.261351 0.225644 0.261348 0.222834 0.257728 0.264953 0.320703 0.261351 0.312006 0.261348 0.311926 0.257728 0.305731 0.175627 0.197315 0.172495 0.192921 0.174553 0.195859 0.171499 0.19151 0.197315 0.225642 0.192921 0.218589 0.195859 0.222834 0.19151 0.216491 0.225642 0.261351 0.218589 0.251672 0.222834 0.257728 0.216491 0.248939 0.261351 0.312006 0.251672 0.295405 0.257728 0.305731 0.248939 0.290376 0.312006 0.385212 0.295405 0.355828 0.305731 0.37521 0.290376 0.347266 0.172495 0.192921 0.167652 0.186185 0.171499 0.19151 0.166736 0.184933 0.192921 0.218589 0.186185 0.208944 0.19151 0.216491 0.184933 0.207186 0.218589 0.251672 0.208944 0.237253 0.216491 0.248939 0.207186 0.234659 0.251672 0.295405 0.237253 0.27266 0.248939 0.290376 0.234659 0.26875 0.295405 0.355828 0.27266 0.318519 0.290376 0.347266 0.26875 0.312418 0.355828 0.443373 0.318519 0.376125 0.347266 0.427579 0.312418 0.366203 0.167652 0.186185 0.161488 0.177856 0.166736 0.184933 0.160672 0.176767 0.186185 0.208944 0.177856 0.197411 0.184933 0.207186 0.176767 0.195921 0.208944 0.237253 0.197411 0.220754 0.207186 0.234659 0.195921 0.218684 0.237253 0.27266 0.220754 0.248699 0.234659 0.26875 0.218684 0.24575 0.27266 0.318519 0.248699 0.281455 0.26875 0.312418 0.24575 0.27721 0.318519 0.376125 0.281455 0.318579 0.312418 0.366203 0.27721 0.312473 0.376125 0.444154 0.318579 0.355882 0.366203 0.427627 0.312473 0.347267 0.444154 0.506486 0.355882 0.385679 0.427627 0.483412 0.347267 0.375106 0.506486 0.531139 0.385679 0.397783 0.483412 0.505296 0.375106 0.385968 0.531139 0.504446 0.397783 0.385491 0.505296 0.480388 0.385968 0.37482 0.161488 0.177856 0.154245 0.168655 0.160672 0.176767 0.153535 0.167725 0.177856 0.197411 0.168655 0.185062 0.176767 0.195921 0.167725 0.183837 0.197411 0.220754 0.185062 0.203923 0.195921 0.218684 0.183837 0.202287 0.220754 0.248699 0.203923 0.225292 0.218684 0.24575 0.202287 0.223094 0.248699 0.281455 0.225292 0.248803 0.24575 0.27721 0.223094 0.245846 0.281455 0.318579 0.248803 0.272818 0.27721 0.312473 0.245846 0.268884 0.318579 0.355882 0.272818 0.295699 0.312473 0.347267 0.268884 0.290646 0.355882 0.385679 0.295699 0.312352 0.347267 0.375106 0.290646 0.306482 0.385679 0.397783 0.312352 0.318454 0.375106 0.385968 0.306482 0.312211 0.397783 0.385491 0.318454 0.310773 0.385968 0.37482 0.312211 0.305003 0.153536 0.167726 0.160673 0.176768 0.151465 0.165026 0.158296 0.173613 0.167726 0.183838 0.176768 0.195921 0.165026 0.180301 0.173613 0.191652 0.183838 0.202285 0.195921 0.218687 0.180301 0.197604 0.191652 0.21281 0.202285 0.223106 0.218687 0.245726 0.197604 0.216874 0.21281 0.237474 0.223106 0.245803 0.245726 0.277265 0.216874 0.237556 0.237474 0.265537 0.245803 0.269001 0.277265 0.31191 0.237556 0.258212 0.265537 0.295732 0.269001 0.290653 0.31191 0.347246 0.258212 0.276456 0.295732 0.323724 0.290653 0.306502 0.347246 0.375132 0.276456 0.290579 0.323724 0.347228 0.306502 0.312237 0.375132 0.386002 0.290579 0.295485 0.347228 0.35584 0.312237 0.305029 0.386002 0.374853 0.295485 0.2895 0.35584 0.347343 0.160673 0.176768 0.166737 0.184933 0.158296 0.173613 0.164081 0.181328 0.176768 0.195921 0.184933 0.207187 0.173613 0.191652 0.181328 0.202133 0.195921 0.218687 0.207187 0.23465 0.191652 0.21281 0.202133 0.227369 0.218687 0.245726 0.23465 0.268807 0.21281 0.237474 0.227369 0.258132 0.245726 0.277265 0.268807 0.311858 0.237474 0.265537 0.258132 0.295687 0.277265 0.31191 0.311858 0.365256 0.265537 0.295732 0.295687 0.339662 0.31191 0.347246 0.365256 0.427788 0.295732 0.323724 0.339662 0.386727 0.347246 0.375132 0.427788 0.483445 0.323724 0.347228 0.386727 0.427655 0.375132 0.386002 0.483445 0.505348 0.347228 0.35584 0.427655 0.44395 0.166737 0.184933 0.1715 0.191511 0.164081 0.181328 0.168607 0.187486 0.184933 0.207187 0.191511 0.21649 0.181328 0.202133 0.187486 0.210788 0.207187 0.23465 0.21649 0.248939 0.202133 0.227369 0.210788 0.239912 0.23465 0.268807 0.248939 0.290372 0.227369 0.258132 0.239912 0.276225 0.268807 0.311858 0.290372 0.347234 0.258132 0.295687 0.276225 0.323655 0.311858 0.365256 0.347234 0.427583 0.295687 0.339662 0.323655 0.386649 0.1715 0.191511 0.174553 0.195859 0.168607 0.187486 0.171504 0.191517 0.191511 0.21649 0.195859 0.222833 0.187486 0.210788 0.191517 0.216495 0.21649 0.248939 0.222833 0.257726 0.210788 0.239912 0.216495 0.248939 0.248939 0.290372 0.257726 0.305721 0.239912 0.276225 0.248939 0.290355 0.290372 0.347234 0.305721 0.375219 0.276225 0.323655 0.290355 0.347122 0.347234 0.427583 0.375219 0.482137 0.323655 0.386649 0.347122 0.427923 0.174553 0.195859 0.175627 0.197317 0.171504 0.191517 0.1725 0.192929 0.195859 0.222833 0.197317 0.225644 0.191517 0.216495 0.192929 0.218591 0.222833 0.257726 0.225644 0.261348 0.216495 0.248939 0.218591 0.251693 0.257726 0.305721 0.261348 0.311926 0.248939 0.290355 0.251693 0.295446 0.305721 0.375219 0.311926 0.385818 0.290355 0.347122 0.295446 0.355829 0.375219 0.482137 0.385818 0.505159 0.347122 0.427923 0.355829 0.443757 0.175627 0.197317 0.174553 0.195859 0.1725 0.192929 0.171504 0.191517 0.197317 0.225644 0.195859 0.222834 0.192929 0.218591 0.191517 0.216495 0.225644 0.261348 0.222834 0.257728 0.218591 0.251693 0.216495 0.248939 0.261348 0.311926 0.257728 0.305731 0.251693 0.295446 0.248939 0.290359 0.311926 0.385818 0.305731 0.37521 0.295446 0.355829 0.290359 0.347156 0.174553 0.195859 0.171499 0.19151 0.171504 0.191517 0.168606 0.187486 0.195859 0.222834 0.19151 0.216491 0.191517 0.216495 0.187486 0.210787 0.222834 0.257728 0.216491 0.248939 0.216495 0.248939 0.210787 0.239912 0.257728 0.305731 0.248939 0.290376 0.248939 0.290359 0.239912 0.27622 0.305731 0.37521 0.290376 0.347266 0.290359 0.347156 0.27622 0.323656 0.37521 0.480775 0.347266 0.427579 0.347156 0.427659 0.323656 0.386686 0.171499 0.19151 0.166736 0.184933 0.168606 0.187486 0.16408 0.181327 0.19151 0.216491 0.184933 0.207186 0.187486 0.210787 0.181327 0.202132 0.216491 0.248939 0.207186 0.234659 0.210787 0.239912 0.202132 0.227364 0.248939 0.290376 0.234659 0.26875 0.239912 0.27622 0.227364 0.258154 0.290376 0.347266 0.26875 0.312418 0.27622 0.323656 0.258154 0.295545 0.347266 0.427579 0.312418 0.366203 0.323656 0.386686 0.295545 0.339415 0.166736 0.184933 0.160672 0.176767 0.16408 0.181327 0.158295 0.173612 0.184933 0.207186 0.176767 0.195921 0.181327 0.202132 0.173612 0.19165 0.207186 0.234659 0.195921 0.218684 0.202132 0.227364 0.19165 0.212808 0.234659 0.26875 0.218684 0.24575 0.227364 0.258154 0.212808 0.237469 0.26875 0.312418 0.24575 0.27721 0.258154 0.295545 0.237469 0.265519 0.312418 0.366203 0.27721 0.312473 0.295545 0.339415 0.265519 0.295582 0.366203 0.427627 0.312473 0.347267 0.339415 0.386755 0.295582 0.323725 0.427627 0.483412 0.347267 0.375106 0.386755 0.427614 0.323725 0.347205 0.483412 0.505296 0.375106 0.385968 0.427614 0.443905 0.347205 0.355814 0.160672 0.176767 0.153535 0.167725 0.158295 0.173612 0.151464 0.165025 0.176767 0.195921 0.167725 0.183837 0.173612 0.19165 0.165025 0.180299 0.195921 0.218684 0.183837 0.202287 0.19165 0.212808 0.180299 0.197601 0.218684 0.24575 0.202287 0.223094 0.212808 0.237469 0.197601 0.216868 0.24575 0.27721 0.223094 0.245846 0.237469 0.265519 0.216868 0.237549 0.27721 0.312473 0.245846 0.268884 0.265519 0.295582 0.237549 0.258255 0.312473 0.347267 0.268884 0.290646 0.295582 0.323725 0.258255 0.276432 0.347267 0.375106 0.290646 0.306482 0.323725 0.347205 0.276432 0.29056 0.375106 0.385968 0.306482 0.312211 0.347205 0.355814 0.29056 0.295465 0.385968 0.37482 0.312211 0.305003 0.355814 0.347316 0.295465 0.28948 0.151465 0.165026 0.158296 0.173613 0.148188 0.160796 0.154556 0.168707 0.165026 0.180301 0.173613 0.191652 0.160796 0.174824 0.168707 0.185111 0.180301 0.197604 0.191652 0.21281 0.174824 0.190462 0.185111 0.203966 0.197604 0.216874 0.21281 0.237474 0.190462 0.207536 0.203966 0.225372 0.216874 0.237556 0.237474 0.265537 0.207536 0.225452 0.225372 0.24894 0.237556 0.258212 0.265537 0.295732 0.225452 0.242929 0.24894 0.273267 0.258212 0.276456 0.295732 0.323724 0.242929 0.258215 0.273267 0.295559 0.276456 0.290579 0.323724 0.347228 0.258215 0.268759 0.295559 0.312398 0.290579 0.295485 0.347228 0.35584 0.268759 0.272583 0.312398 0.318403 0.295485 0.2895 0.35584 0.347343 0.272583 0.268244 0.318403 0.312225 0.158296 0.173613 0.164081 0.181328 0.154556 0.168707 0.159925 0.175756 0.173613 0.191652 0.181328 0.202133 0.168707 0.185111 0.175756 0.194487 0.191652 0.21281 0.202133 0.227369 0.185111 0.203966 0.194487 0.216671 0.21281 0.237474 0.227369 0.258132 0.203966 0.225372 0.216671 0.242853 0.237474 0.265537 0.258132 0.295687 0.225372 0.24894 0.242853 0.273233 0.265537 0.295732 0.295687 0.339662 0.24894 0.273267 0.273233 0.306704 0.295732 0.323724 0.339662 0.386727 0.273267 0.295559 0.306704 0.339396 0.323724 0.347228 0.386727 0.427655 0.295559 0.312398 0.339396 0.366154 0.347228 0.35584 0.427655 0.44395 0.312398 0.318403 0.366154 0.37596 0.35584 0.347343 0.44395 0.42773 0.318403 0.312225 0.37596 0.366522 0.164081 0.181328 0.168607 0.187486 0.159925 0.175756 0.164099 0.181343 0.181328 0.202133 0.187486 0.210788 0.175756 0.194487 0.181343 0.202139 0.202133 0.227369 0.210788 0.239912 0.194487 0.216671 0.202139 0.227354 0.227369 0.258132 0.239912 0.276225 0.216671 0.242853 0.227354 0.258073 0.258132 0.295687 0.276225 0.323655 0.242853 0.273233 0.258073 0.295648 0.295687 0.339662 0.323655 0.386649 0.273233 0.306704 0.295648 0.339557 0.168607 0.187486 0.171504 0.191517 0.164099 0.181343 0.16676 0.184956 0.187486 0.210788 0.191517 0.216495 0.181343 0.202139 0.184956 0.207194 0.210788 0.239912 0.216495 0.248939 0.202139 0.227354 0.207194 0.234665 0.239912 0.276225 0.248939 0.290355 0.227354 0.258073 0.234665 0.26873 0.276225 0.323655 0.290355 0.347122 0.258073 0.295648 0.26873 0.311242 0.323655 0.386649 0.347122 0.427923 0.295648 0.339557 0.311242 0.365368 0.171504 0.191517 0.1725 0.192929 0.16676 0.184956 0.167676 0.186209 0.191517 0.216495 0.192929 0.218591 0.184956 0.207194 0.186209 0.208959 0.216495 0.248939 0.218591 0.251693 0.207194 0.234665 0.208959 0.237219 0.248939 0.290355 0.251693 0.295446 0.234665 0.26873 0.237219 0.27323 0.290355 0.347122 0.295446 0.355829 0.26873 0.311242 0.27323 0.318278 0.347122 0.427923 0.355829 0.443757 0.311242 0.365368 0.318278 0.376525 0.1725 0.192929 0.171504 0.191517 0.167676 0.186209 0.166759 0.184955 0.192929 0.218591 0.191517 0.216495 0.186209 0.208959 0.184955 0.207193 0.218591 0.251693 0.216495 0.248939 0.208959 0.237219 0.207193 0.234664 0.251693 0.295446 0.248939 0.290359 0.237219 0.27323 0.234664 0.26873 0.295446 0.355829 0.290359 0.347156 0.27323 0.318278 0.26873 0.311235 0.355829 0.443757 0.347156 0.427659 0.318278 0.376525 0.311235 0.365403 0.171504 0.191517 0.168606 0.187486 0.166759 0.184955 0.164098 0.181342 0.191517 0.216495 0.187486 0.210787 0.184955 0.207193 0.181342 0.202137 0.216495 0.248939 0.210787 0.239912 0.207193 0.234664 0.202137 0.227351 0.248939 0.290359 0.239912 0.27622 0.234664 0.26873 0.227351 0.258065 0.290359 0.347156 0.27622 0.323656 0.26873 0.311235 0.258065 0.295626 0.347156 0.427659 0.323656 0.386686 0.311235 0.365403 0.295626 0.339519 0.168606 0.187486 0.16408 0.181327 0.164098 0.181342 0.159923 0.175754 0.187486 0.210787 0.181327 0.202132 0.181342 0.202137 0.175754 0.194485 0.210787 0.239912 0.202132 0.227364 0.202137 0.227351 0.194485 0.216668 0.239912 0.27622 0.227364 0.258154 0.227351 0.258065 0.216668 0.242835 0.27622 0.323656 0.258154 0.295545 0.258065 0.295626 0.242835 0.273204 0.323656 0.386686 0.295545 0.339415 0.295626 0.339519 0.273204 0.306676 0.16408 0.181327 0.158295 0.173612 0.159923 0.175754 0.154554 0.168705 0.181327 0.202132 0.173612 0.19165 0.175754 0.194485 0.168705 0.185108 0.202132 0.227364 0.19165 0.212808 0.194485 0.216668 0.185108 0.203961 0.227364 0.258154 0.212808 0.237469 0.216668 0.242835 0.203961 0.22536 0.258154 0.295545 0.237469 0.265519 0.242835 0.273204 0.22536 0.248904 0.295545 0.339415 0.265519 0.295582 0.273204 0.306676 0.248904 0.273236 0.339415 0.386755 0.295582 0.323725 0.306676 0.339359 0.273236 0.295527 0.386755 0.427614 0.323725 0.347205 0.339359 0.366123 0.295527 0.31238 0.427614 0.443905 0.347205 0.355814 0.366123 0.375945 0.31238 0.318387 0.443905 0.427653 0.355814 0.347316 0.375945 0.366612 0.318387 0.312216 0.158295 0.173612 0.151464 0.165025 0.154554 0.168705 0.148186 0.160794 0.173612 0.19165 0.165025 0.180299 0.168705 0.185108 0.160794 0.174821 0.19165 0.212808 0.180299 0.197601 0.185108 0.203961 0.174821 0.190456 0.212808 0.237469 0.197601 0.216868 0.203961 0.22536 0.190456 0.207525 0.237469 0.265519 0.216868 0.237549 0.22536 0.248904 0.207525 0.225432 0.265519 0.295582 0.237549 0.258255 0.248904 0.273236 0.225432 0.242894 0.295582 0.323725 0.258255 0.276432 0.273236 0.295527 0.242894 0.258195 0.323725 0.347205 0.276432 0.29056 0.295527 0.31238 0.258195 0.268743 0.347205 0.355814 0.29056 0.295465 0.31238 0.318387 0.268743 0.272569 0.355814 0.347316 0.295465 0.28948 0.318387 0.312216 0.272569 0.26823 0.148188 0.160796 0.154556 0.168707 0.143927 0.155375 0.149729 0.162477 0.160796 0.174824 0.168707 0.185111 0.155375 0.167916 0.162477 0.176969 0.174824 0.190462 0.185111 0.203966 0.167916 0.181622 0.176969 0.193224 0.190462 0.207536 0.203966 0.225372 0.181622 0.19624 0.193224 0.211116 0.207536 0.225452 0.225372 0.24894 0.19624 0.211179 0.211116 0.230084 0.225452 0.242929 0.24894 0.273267 0.211179 0.225406 0.230084 0.248887 0.242929 0.258215 0.273267 0.295559 0.225406 0.237471 0.248887 0.265429 0.258215 0.268759 0.295559 0.312398 0.237471 0.245694 0.265429 0.277077 0.268759 0.272583 0.312398 0.318403 0.245694 0.24856 0.277077 0.281236 0.272583 0.268244 0.318403 0.312225 0.24856 0.245294 0.281236 0.276914 0.154556 0.168707 0.159925 0.175756 0.149729 0.162477 0.154595 0.168744 0.168707 0.185111 0.175756 0.194487 0.162477 0.176969 0.168744 0.185108 0.185111 0.203966 0.194487 0.216671 0.176969 0.193224 0.185108 0.20394 0.203966 0.225372 0.216671 0.242853 0.193224 0.211116 0.20394 0.225321 0.225372 0.24894 0.242853 0.273233 0.211116 0.230084 0.225321 0.248876 0.24894 0.273267 0.273233 0.306704 0.230084 0.248887 0.248876 0.27318 0.273267 0.295559 0.306704 0.339396 0.248887 0.265429 0.27318 0.295517 0.295559 0.312398 0.339396 0.366154 0.265429 0.277077 0.295517 0.311721 0.312398 0.318403 0.366154 0.37596 0.277077 0.281236 0.311721 0.317771 0.318403 0.312225 0.37596 0.366522 0.281236 0.276914 0.317771 0.312315 0.159925 0.175756 0.164099 0.181343 0.154595 0.168744 0.158356 0.173669 0.175756 0.194487 0.181343 0.202139 0.168744 0.185108 0.173669 0.191656 0.194487 0.216671 0.202139 0.227354 0.185108 0.20394 0.191656 0.212773 0.216671 0.242853 0.227354 0.258073 0.20394 0.225321 0.212773 0.237374 0.242853 0.273233 0.258073 0.295648 0.225321 0.248876 0.237374 0.265365 0.273233 0.306704 0.295648 0.339557 0.248876 0.27318 0.265365 0.295598 0.306704 0.339396 0.339557 0.38667 0.27318 0.295517 0.295598 0.323547 0.339396 0.366154 0.38667 0.42757 0.295517 0.311721 0.323547 0.347022 0.366154 0.37596 0.42757 0.444149 0.311721 0.317771 0.347022 0.355631 0.37596 0.366522 0.444149 0.428543 0.317771 0.312315 0.355631 0.346889 0.164099 0.181343 0.16676 0.184956 0.158356 0.173669 0.16074 0.176833 0.181343 0.202139 0.184956 0.207194 0.173669 0.191656 0.176833 0.195931 0.202139 0.227354 0.207194 0.234665 0.191656 0.212773 0.195931 0.218665 0.227354 0.258073 0.234665 0.26873 0.212773 0.237374 0.218665 0.245639 0.258073 0.295648 0.26873 0.311242 0.237374 0.265365 0.245639 0.276969 0.295648 0.339557 0.311242 0.365368 0.265365 0.295598 0.276969 0.311192 0.339557 0.38667 0.365368 0.427697 0.295598 0.323547 0.311192 0.346995 0.38667 0.42757 0.427697 0.483286 0.323547 0.347022 0.346995 0.374918 0.42757 0.444149 0.483286 0.50587 0.347022 0.355631 0.374918 0.385805 0.444149 0.428543 0.50587 0.482519 0.355631 0.346889 0.385805 0.374579 0.16676 0.184956 0.167676 0.186209 0.16074 0.176833 0.161558 0.177925 0.184956 0.207194 0.186209 0.208959 0.176833 0.195931 0.177925 0.19742 0.207194 0.234665 0.208959 0.237219 0.195931 0.218665 0.19742 0.220754 0.234665 0.26873 0.237219 0.27323 0.218665 0.245639 0.220754 0.248644 0.26873 0.311242 0.27323 0.318278 0.245639 0.276969 0.248644 0.281646 0.311242 0.365368 0.318278 0.376525 0.276969 0.311192 0.281646 0.318227 0.365368 0.427697 0.376525 0.44405 0.311192 0.346995 0.318227 0.355672 0.427697 0.483286 0.44405 0.506498 0.346995 0.374918 0.355672 0.385493 0.483286 0.50587 0.506498 0.531109 0.374918 0.385805 0.385493 0.397667 0.50587 0.482519 0.531109 0.504332 0.385805 0.374579 0.397667 0.38544 0.167676 0.186209 0.166759 0.184955 0.161558 0.177925 0.16074 0.176832 0.186209 0.208959 0.184955 0.207193 0.177925 0.19742 0.176832 0.19593 0.208959 0.237219 0.207193 0.234664 0.19742 0.220754 0.19593 0.218663 0.237219 0.27323 0.234664 0.26873 0.220754 0.248644 0.218663 0.245636 0.27323 0.318278 0.26873 0.311235 0.248644 0.281646 0.245636 0.276966 0.318278 0.376525 0.311235 0.365403 0.281646 0.318227 0.276966 0.311184 0.376525 0.44405 0.365403 0.427678 0.318227 0.355672 0.311184 0.34699 0.44405 0.506498 0.427678 0.483339 0.355672 0.385493 0.34699 0.374916 0.506498 0.531109 0.483339 0.505219 0.385493 0.397667 0.374916 0.385849 0.531109 0.504332 0.505219 0.480203 0.397667 0.38544 0.385849 0.374773 0.166759 0.184955 0.164098 0.181342 0.16074 0.176832 0.158355 0.173667