<?xml version="1.0" ?> 
<!-- 
# vtk DataFile Version 3.0
#This file was generated by the deal.II library on 16:49:42 at 2019/11/27
-->
<VTKFile type="UnstructuredGrid" version="0.1" byte_order="LittleEndian">
<UnstructuredGrid>
<Piece NumberOfPoints="18528" NumberOfCells="2316" >
  <Points>
    <DataArray type="Float32" NumberOfComponents="3" format="ascii">
-50 -50 0
-40 -50 0
-50 -40 0
-40 -40 0
-50 -50 10
-40 -50 10
-50 -40 10
-40 -40 10
-40 -50 0
-30 -50 0
-40 -40 0
-30 -40 0
-40 -50 10
-30 -50 10
-40 -40 10
-30 -40 10
-30 -50 0
-20 -50 0
-30 -40 0
-20 -40 0
-30 -50 10
-20 -50 10
-30 -40 10
-20 -40 10
-20 -50 0
-10 -50 0
-20 -40 0
-10 -40 0
-20 -50 10
-10 -50 10
-20 -40 10
-10 -40 10
-10 -50 0
0 -50 0
-10 -40 0
0 -40 0
-10 -50 10
0 -50 10
-10 -40 10
0 -40 10
0 -50 0
10 -50 0
0 -40 0
10 -40 0
0 -50 10
10 -50 10
0 -40 10
10 -40 10
10 -50 0
20 -50 0
10 -40 0
20 -40 0
10 -50 10
20 -50 10
10 -40 10
20 -40 10
20 -50 0
30 -50 0
20 -40 0
30 -40 0
20 -50 10
30 -50 10
20 -40 10
30 -40 10
30 -50 0
40 -50 0
30 -40 0
40 -40 0
30 -50 10
40 -50 10
30 -40 10
40 -40 10
40 -50 0
50 -50 0
40 -40 0
50 -40 0
40 -50 10
50 -50 10
40 -40 10
50 -40 10
-50 -40 0
-40 -40 0
-50 -30 0
-40 -30 0
-50 -40 10
-40 -40 10
-50 -30 10
-40 -30 10
-40 -40 0
-30 -40 0
-40 -30 0
-30 -30 0
-40 -40 10
-30 -40 10
-40 -30 10
-30 -30 10
-30 -40 0
-20 -40 0
-30 -30 0
-20 -30 0
-30 -40 10
-20 -40 10
-30 -30 10
-20 -30 10
-20 -40 0
-10 -40 0
-20 -30 0
-10 -30 0
-20 -40 10
-10 -40 10
-20 -30 10
-10 -30 10
-10 -40 0
0 -40 0
-10 -30 0
0 -30 0
-10 -40 10
0 -40 10
-10 -30 10
0 -30 10
0 -40 0
10 -40 0
0 -30 0
10 -30 0
0 -40 10
10 -40 10
0 -30 10
10 -30 10
10 -40 0
20 -40 0
10 -30 0
20 -30 0
10 -40 10
20 -40 10
10 -30 10
20 -30 10
20 -40 0
30 -40 0
20 -30 0
30 -30 0
20 -40 10
30 -40 10
20 -30 10
30 -30 10
30 -40 0
40 -40 0
30 -30 0
40 -30 0
30 -40 10
40 -40 10
30 -30 10
40 -30 10
40 -40 0
50 -40 0
40 -30 0
50 -30 0
40 -40 10
50 -40 10
40 -30 10
50 -30 10
-40 -30 0
-30 -30 0
-40 -20 0
-30 -20 0
-40 -30 10
-30 -30 10
-40 -20 10
-30 -20 10
-30 -30 0
-20 -30 0
-30 -20 0
-20 -20 0
-30 -30 10
-20 -30 10
-30 -20 10
-20 -20 10
-20 -30 0
-10 -30 0
-20 -20 0
-10 -20 0
-20 -30 10
-10 -30 10
-20 -20 10
-10 -20 10
10 -30 0
20 -30 0
10 -20 0
20 -20 0
10 -30 10
20 -30 10
10 -20 10
20 -20 10
20 -30 0
30 -30 0
20 -20 0
30 -20 0
20 -30 10
30 -30 10
20 -20 10
30 -20 10
30 -30 0
40 -30 0
30 -20 0
40 -20 0
30 -30 10
40 -30 10
30 -20 10
40 -20 10
40 -30 0
50 -30 0
40 -20 0
50 -20 0
40 -30 10
50 -30 10
40 -20 10
50 -20 10
10 -20 0
20 -20 0
10 -10 0
20 -10 0
10 -20 10
20 -20 10
10 -10 10
20 -10 10
20 -20 0
30 -20 0
20 -10 0
30 -10 0
20 -20 10
30 -20 10
20 -10 10
30 -10 10
30 -20 0
40 -20 0
30 -10 0
40 -10 0
30 -20 10
40 -20 10
30 -10 10
40 -10 10
40 -20 0
50 -20 0
40 -10 0
50 -10 0
40 -20 10
50 -20 10
40 -10 10
50 -10 10
20 -10 0
30 -10 0
20 0 0
30 0 0
20 -10 10
30 -10 10
20 0 10
30 0 10
30 -10 0
40 -10 0
30 0 0
40 0 0
30 -10 10
40 -10 10
30 0 10
40 0 10
40 -10 0
50 -10 0
40 0 0
50 0 0
40 -10 10
50 -10 10
40 0 10
50 0 10
20 0 0
30 0 0
20 10 0
30 10 0
20 0 10
30 0 10
20 10 10
30 10 10
30 0 0
40 0 0
30 10 0
40 10 0
30 0 10
40 0 10
30 10 10
40 10 10
40 0 0
50 0 0
40 10 0
50 10 0
40 0 10
50 0 10
40 10 10
50 10 10
10 10 0
20 10 0
10 20 0
20 20 0
10 10 10
20 10 10
10 20 10
20 20 10
20 10 0
30 10 0
20 20 0
30 20 0
20 10 10
30 10 10
20 20 10
30 20 10
30 10 0
40 10 0
30 20 0
40 20 0
30 10 10
40 10 10
30 20 10
40 20 10
40 10 0
50 10 0
40 20 0
50 20 0
40 10 10
50 10 10
40 20 10
50 20 10
-40 20 0
-30 20 0
-40 30 0
-30 30 0
-40 20 10
-30 20 10
-40 30 10
-30 30 10
-30 20 0
-20 20 0
-30 30 0
-20 30 0
-30 20 10
-20 20 10
-30 30 10
-20 30 10
-20 20 0
-10 20 0
-20 30 0
-10 30 0
-20 20 10
-10 20 10
-20 30 10
-10 30 10
10 20 0
20 20 0
10 30 0
20 30 0
10 20 10
20 20 10
10 30 10
20 30 10
20 20 0
30 20 0
20 30 0
30 30 0
20 20 10
30 20 10
20 30 10
30 30 10
30 20 0
40 20 0
30 30 0
40 30 0
30 20 10
40 20 10
30 30 10
40 30 10
40 20 0
50 20 0
40 30 0
50 30 0
40 20 10
50 20 10
40 30 10
50 30 10
-50 30 0
-40 30 0
-50 40 0
-40 40 0
-50 30 10
-40 30 10
-50 40 10
-40 40 10
-40 30 0
-30 30 0
-40 40 0
-30 40 0
-40 30 10
-30 30 10
-40 40 10
-30 40 10
-30 30 0
-20 30 0
-30 40 0
-20 40 0
-30 30 10
-20 30 10
-30 40 10
-20 40 10
-20 30 0
-10 30 0
-20 40 0
-10 40 0
-20 30 10
-10 30 10
-20 40 10
-10 40 10
-10 30 0
0 30 0
-10 40 0
0 40 0
-10 30 10
0 30 10
-10 40 10
0 40 10
0 30 0
10 30 0
0 40 0
10 40 0
0 30 10
10 30 10
0 40 10
10 40 10
10 30 0
20 30 0
10 40 0
20 40 0
10 30 10
20 30 10
10 40 10
20 40 10
20 30 0
30 30 0
20 40 0
30 40 0
20 30 10
30 30 10
20 40 10
30 40 10
30 30 0
40 30 0
30 40 0
40 40 0
30 30 10
40 30 10
30 40 10
40 40 10
40 30 0
50 30 0
40 40 0
50 40 0
40 30 10
50 30 10
40 40 10
50 40 10
-50 40 0
-40 40 0
-50 50 0
-40 50 0
-50 40 10
-40 40 10
-50 50 10
-40 50 10
-40 40 0
-30 40 0
-40 50 0
-30 50 0
-40 40 10
-30 40 10
-40 50 10
-30 50 10
-30 40 0
-20 40 0
-30 50 0
-20 50 0
-30 40 10
-20 40 10
-30 50 10
-20 50 10
-20 40 0
-10 40 0
-20 50 0
-10 50 0
-20 40 10
-10 40 10
-20 50 10
-10 50 10
-10 40 0
0 40 0
-10 50 0
0 50 0
-10 40 10
0 40 10
-10 50 10
0 50 10
0 40 0
10 40 0
0 50 0
10 50 0
0 40 10
10 40 10
0 50 10
10 50 10
10 40 0
20 40 0
10 50 0
20 50 0
10 40 10
20 40 10
10 50 10
20 50 10
20 40 0
30 40 0
20 50 0
30 50 0
20 40 10
30 40 10
20 50 10
30 50 10
30 40 0
40 40 0
30 50 0
40 50 0
30 40 10
40 40 10
30 50 10
40 50 10
40 40 0
50 40 0
40 50 0
50 50 0
40 40 10
50 40 10
40 50 10
50 50 10
-50 -50 10
-40 -50 10
-50 -40 10
-40 -40 10
-50 -50 20
-40 -50 20
-50 -40 20
-40 -40 20
-40 -50 10
-30 -50 10
-40 -40 10
-30 -40 10
-40 -50 20
-30 -50 20
-40 -40 20
-30 -40 20
-30 -50 10
-20 -50 10
-30 -40 10
-20 -40 10
-30 -50 20
-20 -50 20
-30 -40 20
-20 -40 20
-20 -50 10
-10 -50 10
-20 -40 10
-10 -40 10
-20 -50 20
-10 -50 20
-20 -40 20
-10 -40 20
-10 -50 10
0 -50 10
-10 -40 10
0 -40 10
-10 -50 20
0 -50 20
-10 -40 20
0 -40 20
0 -50 10
10 -50 10
0 -40 10
10 -40 10
0 -50 20
10 -50 20
0 -40 20
10 -40 20
10 -50 10
20 -50 10
10 -40 10
20 -40 10
10 -50 20
20 -50 20
10 -40 20
20 -40 20
20 -50 10
30 -50 10
20 -40 10
30 -40 10
20 -50 20
30 -50 20
20 -40 20
30 -40 20
30 -50 10
40 -50 10
30 -40 10
40 -40 10
30 -50 20
40 -50 20
30 -40 20
40 -40 20
40 -50 10
50 -50 10
40 -40 10
50 -40 10
40 -50 20
50 -50 20
40 -40 20
50 -40 20
-50 -40 10
-40 -40 10
-50 -30 10
-40 -30 10
-50 -40 20
-40 -40 20
-50 -30 20
-40 -30 20
-40 -40 10
-30 -40 10
-40 -30 10
-30 -30 10
-40 -40 20
-30 -40 20
-40 -30 20
-30 -30 20
-30 -40 10
-20 -40 10
-30 -30 10
-20 -30 10
-30 -40 20
-20 -40 20
-30 -30 20
-20 -30 20
-20 -40 10
-10 -40 10
-20 -30 10
-10 -30 10
-20 -40 20
-10 -40 20
-20 -30 20
-10 -30 20
0 -40 10
10 -40 10
0 -30 10
10 -30 10
0 -40 20
10 -40 20
0 -30 20
10 -30 20
10 -40 10
20 -40 10
10 -30 10
20 -30 10
10 -40 20
20 -40 20
10 -30 20
20 -30 20
20 -40 10
30 -40 10
20 -30 10
30 -30 10
20 -40 20
30 -40 20
20 -30 20
30 -30 20
30 -40 10
40 -40 10
30 -30 10
40 -30 10
30 -40 20
40 -40 20
30 -30 20
40 -30 20
40 -40 10
50 -40 10
40 -30 10
50 -30 10
40 -40 20
50 -40 20
40 -30 20
50 -30 20
-30 -30 10
-20 -30 10
-30 -20 10
-20 -20 10
-30 -30 20
-20 -30 20
-30 -20 20
-20 -20 20
10 -30 10
20 -30 10
10 -20 10
20 -20 10
10 -30 20
20 -30 20
10 -20 20
20 -20 20
20 -30 10
30 -30 10
20 -20 10
30 -20 10
20 -30 20
30 -30 20
20 -20 20
30 -20 20
30 -30 10
40 -30 10
30 -20 10
40 -20 10
30 -30 20
40 -30 20
30 -20 20
40 -20 20
40 -30 10
50 -30 10
40 -20 10
50 -20 10
40 -30 20
50 -30 20
40 -20 20
50 -20 20
10 -20 10
20 -20 10
10 -10 10
20 -10 10
10 -20 20
20 -20 20
10 -10 20
20 -10 20
20 -20 10
30 -20 10
20 -10 10
30 -10 10
20 -20 20
30 -20 20
20 -10 20
30 -10 20
30 -20 10
40 -20 10
30 -10 10
40 -10 10
30 -20 20
40 -20 20
30 -10 20
40 -10 20
40 -20 10
50 -20 10
40 -10 10
50 -10 10
40 -20 20
50 -20 20
40 -10 20
50 -10 20
10 -10 10
20 -10 10
10 0 10
20 0 10
10 -10 20
20 -10 20
10 0 20
20 0 20
20 -10 10
30 -10 10
20 0 10
30 0 10
20 -10 20
30 -10 20
20 0 20
30 0 20
30 -10 10
40 -10 10
30 0 10
40 0 10
30 -10 20
40 -10 20
30 0 20
40 0 20
40 -10 10
50 -10 10
40 0 10
50 0 10
40 -10 20
50 -10 20
40 0 20
50 0 20
10 0 10
20 0 10
10 10 10
20 10 10
10 0 20
20 0 20
10 10 20
20 10 20
20 0 10
30 0 10
20 10 10
30 10 10
20 0 20
30 0 20
20 10 20
30 10 20
30 0 10
40 0 10
30 10 10
40 10 10
30 0 20
40 0 20
30 10 20
40 10 20
40 0 10
50 0 10
40 10 10
50 10 10
40 0 20
50 0 20
40 10 20
50 10 20
10 10 10
20 10 10
10 20 10
20 20 10
10 10 20
20 10 20
10 20 20
20 20 20
20 10 10
30 10 10
20 20 10
30 20 10
20 10 20
30 10 20
20 20 20
30 20 20
30 10 10
40 10 10
30 20 10
40 20 10
30 10 20
40 10 20
30 20 20
40 20 20
40 10 10
50 10 10
40 20 10
50 20 10
40 10 20
50 10 20
40 20 20
50 20 20
-30 20 10
-20 20 10
-30 30 10
-20 30 10
-30 20 20
-20 20 20
-30 30 20
-20 30 20
10 20 10
20 20 10
10 30 10
20 30 10
10 20 20
20 20 20
10 30 20
20 30 20
20 20 10
30 20 10
20 30 10
30 30 10
20 20 20
30 20 20
20 30 20
30 30 20
30 20 10
40 20 10
30 30 10
40 30 10
30 20 20
40 20 20
30 30 20
40 30 20
40 20 10
50 20 10
40 30 10
50 30 10
40 20 20
50 20 20
40 30 20
50 30 20
-40 30 10
-30 30 10
-40 40 10
-30 40 10
-40 30 20
-30 30 20
-40 40 20
-30 40 20
-30 30 10
-20 30 10
-30 40 10
-20 40 10
-30 30 20
-20 30 20
-30 40 20
-20 40 20
-20 30 10
-10 30 10
-20 40 10
-10 40 10
-20 30 20
-10 30 20
-20 40 20
-10 40 20
-10 30 10
0 30 10
-10 40 10
0 40 10
-10 30 20
0 30 20
-10 40 20
0 40 20
0 30 10
10 30 10
0 40 10
10 40 10
0 30 20
10 30 20
0 40 20
10 40 20
10 30 10
20 30 10
10 40 10
20 40 10
10 30 20
20 30 20
10 40 20
20 40 20
20 30 10
30 30 10
20 40 10
30 40 10
20 30 20
30 30 20
20 40 20
30 40 20
30 30 10
40 30 10
30 40 10
40 40 10
30 30 20
40 30 20
30 40 20
40 40 20
40 30 10
50 30 10
40 40 10
50 40 10
40 30 20
50 30 20
40 40 20
50 40 20
-50 40 10
-40 40 10
-50 50 10
-40 50 10
-50 40 20
-40 40 20
-50 50 20
-40 50 20
-40 40 10
-30 40 10
-40 50 10
-30 50 10
-40 40 20
-30 40 20
-40 50 20
-30 50 20
-30 40 10
-20 40 10
-30 50 10
-20 50 10
-30 40 20
-20 40 20
-30 50 20
-20 50 20
-20 40 10
-10 40 10
-20 50 10
-10 50 10
-20 40 20
-10 40 20
-20 50 20
-10 50 20
-10 40 10
0 40 10
-10 50 10
0 50 10
-10 40 20
0 40 20
-10 50 20
0 50 20
0 40 10
10 40 10
0 50 10
10 50 10
[...]
  <PointData Scalars="scalars">
    <DataArray type="Float32" Name="u" format="ascii">
0.281992 0.304406 0.336775 0.371773 0.277785 0.298965 0.329637 0.362172 0.304406 0.316632 0.371773 0.394016 0.298965 0.3105 0.362172 0.382226 0.316632 0.316662 0.394016 0.394026 0.3105 0.310474 0.382226 0.382153 0.316662 0.304657 0.394026 0.371755 0.310474 0.298992 0.382153 0.360932 0.304657 0.284071 0.371755 0.338029 0.298992 0.279689 0.360932 0.329789 0.284071 0.261025 0.338029 0.299867 0.279689 0.257662 0.329789 0.294622 0.261025 0.236996 0.299867 0.264666 0.257662 0.234451 0.294622 0.261156 0.236996 0.214412 0.264666 0.234246 0.234451 0.212526 0.261156 0.231788 0.214412 0.194201 0.234246 0.208586 0.212526 0.192794 0.231788 0.206846 0.194201 0.176209 0.208586 0.18724 0.192794 0.175163 0.206846 0.185981 0.336775 0.371773 0.412902 0.472808 0.329637 0.362172 0.399037 0.456428 0.371773 0.394016 0.472808 0.52278 0.362172 0.382226 0.456428 0.492033 0.394016 0.394026 0.52278 0.522742 0.382226 0.382153 0.492033 0.492248 0.394026 0.371755 0.522742 0.473067 0.382153 0.360932 0.492248 0.45411 0.371755 0.338029 0.473067 0.41056 0.360932 0.329789 0.45411 0.39557 0.338029 0.299867 0.41056 0.3454 0.329789 0.294622 0.39557 0.33765 0.299867 0.264666 0.3454 0.29441 0.294622 0.261156 0.33765 0.289578 0.264666 0.234246 0.29441 0.254117 0.261156 0.231788 0.289578 0.250981 0.234246 0.208586 0.254117 0.222292 0.231788 0.206846 0.250981 0.220188 0.208586 0.18724 0.222292 0.196963 0.206846 0.185981 0.220188 0.195502 0.472808 0.52278 0.64198 0.783574 0.456428 0.492033 0.595582 0.69513 0.52278 0.522742 0.783574 0.783266 0.492033 0.492248 0.69513 0.694685 0.522742 0.473067 0.783266 0.640555 0.492248 0.45411 0.694685 0.594701 0.3454 0.29441 0.397181 0.323304 0.33765 0.289578 0.385503 0.316979 0.29441 0.254117 0.323304 0.271811 0.289578 0.250981 0.316979 0.267935 0.254117 0.222292 0.271811 0.233894 0.250981 0.220188 0.267935 0.23146 0.222292 0.196963 0.233894 0.204869 0.220188 0.195502 0.23146 0.20322 0.397181 0.323304 0.437299 0.344682 0.385503 0.316979 0.422578 0.336305 0.323304 0.271811 0.344682 0.2846 0.316979 0.267935 0.336305 0.280716 0.271811 0.233894 0.2846 0.241872 0.267935 0.23146 0.280716 0.239075 0.233894 0.204869 0.241872 0.210215 0.23146 0.20322 0.239075 0.208379 0.344682 0.2846 0.357138 0.289168 0.336305 0.280716 0.344714 0.284415 0.2846 0.241872 0.289168 0.245794 0.280716 0.239075 0.284415 0.241952 0.241872 0.210215 0.245794 0.211927 0.239075 0.208379 0.241952 0.210215 0.357138 0.289168 0.344714 0.284616 0.344714 0.284415 0.336334 0.280731 0.289168 0.245794 0.284616 0.24188 0.284415 0.241952 0.280731 0.239083 0.245794 0.211927 0.24188 0.210221 0.241952 0.210215 0.239083 0.208385 0.437389 0.344714 0.397299 0.323352 0.422657 0.336334 0.385619 0.317022 0.344714 0.284616 0.323352 0.271833 0.336334 0.280731 0.317022 0.267957 0.284616 0.24188 0.271833 0.233908 0.280731 0.239083 0.267957 0.231473 0.24188 0.210221 0.233908 0.204879 0.239083 0.208385 0.231473 0.20323 0.642468 0.787344 0.47346 0.521799 0.595689 0.701134 0.455141 0.490434 0.787344 0.787005 0.521799 0.521495 0.701134 0.701011 0.490434 0.489859 0.787005 0.641633 0.521495 0.472301 0.701011 0.59455 0.489859 0.456591 0.397299 0.323352 0.345471 0.294442 0.385619 0.317022 0.337673 0.289613 0.323352 0.271833 0.294442 0.254139 0.317022 0.267957 0.289613 0.251001 0.271833 0.233908 0.254139 0.222306 0.267957 0.231473 0.251001 0.220202 0.233908 0.204879 0.222306 0.196975 0.231473 0.20323 0.220202 0.195513 0.41387 0.47346 0.337015 0.371541 0.396951 0.455141 0.330265 0.360716 0.47346 0.521799 0.371541 0.393599 0.455141 0.490434 0.360716 0.381768 0.521799 0.521495 0.393599 0.393558 0.490434 0.489859 0.381768 0.381802 0.521495 0.472301 0.393558 0.371739 0.489859 0.456591 0.381802 0.362079 0.472301 0.410567 0.371739 0.338103 0.456591 0.395868 0.362079 0.32932 0.410567 0.345471 0.338103 0.299836 0.395868 0.337673 0.32932 0.294672 0.345471 0.294442 0.299836 0.264687 0.337673 0.289613 0.294672 0.261166 0.294442 0.254139 0.264687 0.234261 0.289613 0.251001 0.261166 0.231804 0.254139 0.222306 0.234261 0.2086 0.251001 0.220202 0.231804 0.20686 0.222306 0.196975 0.2086 0.187252 0.220202 0.195513 0.20686 0.185993 0.337015 0.371541 0.281867 0.304162 0.330265 0.360716 0.277594 0.298564 0.371541 0.393599 0.304162 0.316377 0.360716 0.381768 0.298564 0.310236 0.393599 0.393558 0.316377 0.316444 0.381768 0.381802 0.310236 0.310347 0.393558 0.371739 0.316444 0.304661 0.381802 0.362079 0.310347 0.299216 0.371739 0.338103 0.304661 0.283998 0.362079 0.32932 0.299216 0.280016 0.338103 0.299836 0.283998 0.261034 0.32932 0.294672 0.280016 0.257603 0.299836 0.264687 0.261034 0.236999 0.294672 0.261166 0.257603 0.234465 0.264687 0.234261 0.236999 0.214426 0.261166 0.231804 0.234465 0.212538 0.234261 0.2086 0.214426 0.194213 0.231804 0.20686 0.212538 0.192806 0.2086 0.187252 0.194213 0.176221 0.20686 0.185993 0.192806 0.175174 0.277785 0.298965 0.329637 0.362172 0.266372 0.283781 0.310625 0.335628 0.298965 0.3105 0.362172 0.382226 0.283781 0.294163 0.335628 0.353407 0.3105 0.310474 0.382226 0.382153 0.294163 0.294142 0.353407 0.353471 0.310474 0.298992 0.382153 0.360932 0.294142 0.283482 0.353471 0.33649 0.298992 0.279689 0.360932 0.329789 0.283482 0.267856 0.33649 0.311117 0.279689 0.257662 0.329789 0.294622 0.267856 0.248261 0.311117 0.280787 0.257662 0.234451 0.294622 0.261156 0.248261 0.227285 0.280787 0.251357 0.234451 0.212526 0.261156 0.231788 0.227285 0.207138 0.251357 0.224846 0.212526 0.192794 0.231788 0.206846 0.207138 0.188744 0.224846 0.201868 0.192794 0.175163 0.206846 0.185981 0.188744 0.172125 0.201868 0.182345 0.329637 0.362172 0.399037 0.456428 0.310625 0.335628 0.364706 0.409945 0.362172 0.382226 0.456428 0.492033 0.335628 0.353407 0.409945 0.439111 0.382226 0.382153 0.492033 0.492248 0.353407 0.353471 0.439111 0.439001 0.382153 0.360932 0.492248 0.45411 0.353471 0.33649 0.439001 0.409268 0.329789 0.294622 0.39557 0.33765 0.311117 0.280787 0.363284 0.317292 0.294622 0.261156 0.33765 0.289578 0.280787 0.251357 0.317292 0.276316 0.261156 0.231788 0.289578 0.250981 0.251357 0.224846 0.276316 0.242217 0.231788 0.206846 0.250981 0.220188 0.224846 0.201868 0.242217 0.214218 0.206846 0.185981 0.220188 0.195502 0.201868 0.182345 0.214218 0.191292 0.492033 0.492248 0.69513 0.694685 0.439111 0.439001 0.550272 0.549993 0.33765 0.289578 0.385503 0.316979 0.317292 0.276316 0.353741 0.299274 0.289578 0.250981 0.316979 0.267935 0.276316 0.242217 0.299274 0.257384 0.250981 0.220188 0.267935 0.23146 0.242217 0.214218 0.257384 0.224516 0.220188 0.195502 0.23146 0.20322 0.214218 0.191292 0.224516 0.198513 0.385503 0.316979 0.422578 0.336305 0.353741 0.299274 0.385558 0.316435 0.316979 0.267935 0.336305 0.280716 0.299274 0.257384 0.316435 0.267962 0.267935 0.23146 0.280716 0.239075 0.257384 0.224516 0.267962 0.231527 0.23146 0.20322 0.239075 0.208379 0.224516 0.198513 0.231527 0.20323 0.422578 0.336305 0.43736 0.344714 0.385558 0.316435 0.397354 0.323143 0.336305 0.280716 0.344714 0.284415 0.316435 0.267962 0.323143 0.272794 0.280716 0.239075 0.284415 0.241952 0.267962 0.231527 0.272794 0.233902 0.239075 0.208379 0.241952 0.210215 0.231527 0.20323 0.233902 0.204908 0.43736 0.344714 0.422657 0.336334 0.397354 0.323143 0.385615 0.31646 0.344714 0.284415 0.336334 0.280731 0.323143 0.272794 0.31646 0.267974 0.284415 0.241952 0.280731 0.239083 0.272794 0.233902 0.267974 0.231534 0.241952 0.210215 0.239083 0.208385 0.233902 0.204908 0.231534 0.203235 0.422657 0.336334 0.385619 0.317022 0.385615 0.31646 0.353819 0.299306 0.336334 0.280731 0.317022 0.267957 0.31646 0.267974 0.299306 0.257402 0.280731 0.239083 0.267957 0.231473 0.267974 0.231534 0.257402 0.224527 0.239083 0.208385 0.231473 0.20323 0.231534 0.203235 0.224527 0.198522 0.701134 0.701011 0.490434 0.489859 0.54967 0.549463 0.43949 0.439343 0.385619 0.317022 0.337673 0.289613 0.353819 0.299306 0.317324 0.276343 0.317022 0.267957 0.289613 0.251001 0.299306 0.257402 0.276343 0.242235 0.267957 0.231473 0.251001 0.220202 0.257402 0.224527 0.242235 0.214231 0.231473 0.20323 0.220202 0.195513 0.224527 0.198522 0.214231 0.191303 0.455141 0.490434 0.360716 0.381768 0.409871 0.43949 0.336409 0.353414 0.490434 0.489859 0.381768 0.381802 0.43949 0.439343 0.353414 0.353312 0.489859 0.456591 0.381802 0.362079 0.439343 0.409567 0.353312 0.335598 0.456591 0.395868 0.362079 0.32932 0.409567 0.363468 0.335598 0.310958 0.395868 0.337673 0.32932 0.294672 0.363468 0.317324 0.310958 0.280802 0.337673 0.289613 0.294672 0.261166 0.317324 0.276343 0.280802 0.251371 0.289613 0.251001 0.261166 0.231804 0.276343 0.242235 0.251371 0.22486 0.251001 0.220202 0.231804 0.20686 0.242235 0.214231 0.22486 0.20188 0.220202 0.195513 0.20686 0.185993 0.214231 0.191303 0.20188 0.182356 0.330265 0.360716 0.277594 0.298564 0.311702 0.336409 0.26595 0.283342 0.360716 0.381768 0.298564 0.310236 0.336409 0.353414 0.283342 0.294042 0.381768 0.381802 0.310236 0.310347 0.353414 0.353312 0.294042 0.294114 0.381802 0.362079 0.310347 0.299216 0.353312 0.335598 0.294114 0.283939 0.362079 0.32932 0.299216 0.280016 0.335598 0.310958 0.283939 0.267998 0.32932 0.294672 0.280016 0.257603 0.310958 0.280802 0.267998 0.24824 0.294672 0.261166 0.257603 0.234465 0.280802 0.251371 0.24824 0.227295 0.261166 0.231804 0.234465 0.212538 0.251371 0.22486 0.227295 0.20715 0.231804 0.20686 0.212538 0.192806 0.22486 0.20188 0.20715 0.188755 0.20686 0.185993 0.192806 0.175174 0.20188 0.182356 0.188755 0.172136 0.266372 0.283781 0.310625 0.335628 0.250029 0.264181 0.285118 0.305132 0.283781 0.294163 0.335628 0.353407 0.264181 0.271801 0.305132 0.316833 0.294163 0.294142 0.353407 0.353471 0.271801 0.271818 0.316833 0.316862 0.294142 0.283482 0.353471 0.33649 0.271818 0.264457 0.316862 0.305136 0.283482 0.267856 0.33649 0.311117 0.264457 0.25124 0.305136 0.28526 0.267856 0.248261 0.311117 0.280787 0.25124 0.234598 0.28526 0.26143 0.248261 0.227285 0.280787 0.251357 0.234598 0.216635 0.26143 0.237153 0.227285 0.207138 0.251357 0.224846 0.216635 0.19897 0.237153 0.214511 0.207138 0.188744 0.224846 0.201868 0.19897 0.182507 0.214511 0.194291 0.188744 0.172125 0.201868 0.182345 0.182507 0.16738 0.194291 0.176714 0.310625 0.335628 0.364706 0.409945 0.285118 0.305132 0.324942 0.354501 0.335628 0.353407 0.409945 0.439111 0.305132 0.316833 0.354501 0.373299 0.353407 0.353471 0.439111 0.439001 0.316833 0.316862 0.373299 0.373209 0.353471 0.33649 0.439001 0.409268 0.316862 0.305136 0.373209 0.354291 0.33649 0.311117 0.409268 0.363284 0.305136 0.28526 0.354291 0.324025 0.311117 0.280787 0.363284 0.317292 0.28526 0.26143 0.324025 0.290061 0.280787 0.251357 0.317292 0.276316 0.26143 0.237153 0.290061 0.257841 0.251357 0.224846 0.276316 0.242217 0.237153 0.214511 0.257841 0.229436 0.224846 0.201868 0.242217 0.214218 0.214511 0.194291 0.229436 0.205233 0.201868 0.182345 0.214218 0.191292 0.194291 0.176714 0.205233 0.184827 0.439111 0.439001 0.550272 0.549993 0.373299 0.373209 0.439294 0.43914 0.363284 0.317292 0.421503 0.353741 0.324025 0.290061 0.363254 0.317252 0.317292 0.276316 0.353741 0.299274 0.290061 0.257841 0.317252 0.276276 0.276316 0.242217 0.299274 0.257384 0.257841 0.229436 0.276276 0.24219 0.242217 0.214218 0.257384 0.224516 0.229436 0.205233 0.24219 0.214231 0.214218 0.191292 0.224516 0.198513 0.205233 0.184827 0.214231 0.191314 0.550272 0.549993 0.70088 0.700571 0.439294 0.43914 0.490397 0.490218 0.353741 0.299274 0.385558 0.316435 0.317252 0.276276 0.337668 0.289434 0.299274 0.257384 0.316435 0.267962 0.276276 0.24219 0.289434 0.250949 0.257384 0.224516 0.267962 0.231527 0.24219 0.214231 0.250949 0.220237 0.224516 0.198513 0.231527 0.20323 0.214231 0.191314 0.220237 0.195537 0.595485 0.70088 0.642402 0.787538 0.455032 0.490397 0.473394 0.521782 0.70088 0.700571 0.787538 0.787215 0.490397 0.490218 0.521782 0.521602 0.700571 0.594541 0.787215 0.641312 0.490218 0.454359 0.521602 0.473024 0.385558 0.316435 0.397354 0.323143 0.337668 0.289434 0.345534 0.294078 0.316435 0.267962 0.323143 0.272794 0.289434 0.250949 0.294078 0.254165 0.267962 0.231527 0.272794 0.233902 0.250949 0.220237 0.254165 0.22238 0.231527 0.20323 0.233902 0.204908 0.220237 0.195537 0.22238 0.196998 0.642402 0.787538 0.59568 0.701248 0.473394 0.521782 0.455104 0.490427 0.787538 0.787215 0.701248 0.700956 0.521782 0.521602 0.490427 0.490256 0.787215 0.641312 0.700956 0.594766 0.521602 0.473024 0.490256 0.45444 0.397354 0.323143 0.385615 0.31646 0.345534 0.294078 0.337699 0.28945 0.323143 0.272794 0.31646 0.267974 0.294078 0.254165 0.28945 0.250958 0.272794 0.233902 0.267974 0.231534 0.254165 0.22238 0.250958 0.220243 0.233902 0.204908 0.231534 0.203235 0.22238 0.196998 0.220243 0.195541 0.701248 0.700956 0.54967 0.549463 0.490427 0.490256 0.439464 0.439318 0.385615 0.31646 0.353819 0.299306 0.337699 0.28945 0.317293 0.276299 0.31646 0.267974 0.299306 0.257402 0.28945 0.250958 0.276299 0.242204 0.267974 0.231534 0.257402 0.224527 0.250958 0.220243 0.242204 0.21424 0.231534 0.203235 0.224527 0.198522 0.220243 0.195541 0.21424 0.191321 0.54967 0.549463 0.43949 0.439343 0.439464 0.439318 0.3733 0.373208 0.421633 0.353819 0.363468 0.317324 0.363337 0.317293 0.324046 0.290094 0.353819 0.299306 0.317324 0.276343 0.317293 0.276299 0.290094 0.257861 0.299306 0.257402 0.276343 0.242235 0.276299 0.242204 0.257861 0.229451 0.257402 0.224527 0.242235 0.214231 0.242204 0.21424 0.229451 0.205244 0.224527 0.198522 0.214231 0.191303 0.21424 0.191321 0.205244 0.184836 0.364248 0.409871 0.311702 0.336409 0.325113 0.35462 0.285167 0.305163 0.409871 0.43949 0.336409 0.353414 0.35462 0.3733 0.305163 0.316874 0.43949 0.439343 0.353414 0.353312 0.3733 0.373208 0.316874 0.31683 0.439343 0.409567 0.353312 0.335598 0.373208 0.354301 0.31683 0.305195 0.409567 0.363468 0.335598 0.310958 0.354301 0.324046 0.305195 0.28525 0.363468 0.317324 0.310958 0.280802 0.324046 0.290094 0.28525 0.261438 0.317324 0.276343 0.280802 0.251371 0.290094 0.257861 0.261438 0.237166 0.276343 0.242235 0.251371 0.22486 0.257861 0.229451 0.237166 0.214523 0.242235 0.214231 0.22486 0.20188 0.229451 0.205244 0.214523 0.194302 0.214231 0.191303 0.20188 0.182356 0.205244 0.184836 0.194302 0.176723 0.311702 0.336409 0.26595 0.283342 0.285167 0.305163 0.250223 0.264314 0.336409 0.353414 0.283342 0.294042 0.305163 0.316874 0.264314 0.271787 0.353414 0.353312 0.294042 0.294114 0.316874 0.31683 0.271787 0.271809 0.353312 0.335598 0.294114 0.283939 0.31683 0.305195 0.271809 0.264353 0.335598 0.310958 0.283939 0.267998 0.305195 0.28525 0.264353 0.251204 0.310958 0.280802 0.267998 0.24824 0.28525 0.261438 0.251204 0.234604 0.280802 0.251371 0.24824 0.227295 0.261438 0.237166 0.234604 0.216644 0.251371 0.22486 0.227295 0.20715 0.237166 0.214523 0.216644 0.198981 0.22486 0.20188 0.20715 0.188755 0.214523 0.194302 0.198981 0.182517 0.20188 0.182356 0.188755 0.172136 0.194302 0.176723 0.182517 0.167389 0.250029 0.264181 0.285118 0.305132 0.231259 0.242207 0.257764 0.272242 0.264181 0.271801 0.305132 0.316833 0.242207 0.247992 0.272242 0.28052 0.271801 0.271818 0.316833 0.316862 0.247992 0.248037 0.28052 0.280531 0.271818 0.264457 0.316862 0.305136 0.248037 0.242358 0.280531 0.272362 0.264457 0.25124 0.305136 0.28526 0.242358 0.232037 0.272362 0.257883 0.25124 0.234598 0.28526 0.26143 0.232037 0.218667 0.257883 0.239853 0.234598 0.216635 0.26143 0.237153 0.218667 0.203885 0.239853 0.22071 0.216635 0.19897 0.237153 0.214511 0.203885 0.18896 0.22071 0.20212 0.19897 0.182507 0.214511 0.194291 0.18896 0.174697 0.20212 0.184952 0.182507 0.16738 0.194291 0.176714 0.174697 0.161322 0.184952 0.16961 0.285118 0.305132 0.324942 0.354501 0.257764 0.272242 0.285245 0.305173 0.305132 0.316833 0.354501 0.373299 0.272242 0.28052 0.305173 0.316665 0.316833 0.316862 0.373299 0.373209 0.28052 0.280531 0.316665 0.31665 0.316862 0.305136 0.373209 0.354291 0.280531 0.272362 0.31665 0.305041 0.305136 0.28526 0.354291 0.324025 0.272362 0.257883 0.305041 0.285212 0.28526 0.26143 0.324025 0.290061 0.257883 0.239853 0.285212 0.261363 0.26143 0.237153 0.290061 0.257841 0.239853 0.22071 0.261363 0.237093 0.237153 0.214511 0.257841 0.229436 0.22071 0.20212 0.237093 0.214479 0.214511 0.194291 0.229436 0.205233 0.20212 0.184952 0.214479 0.194323 0.194291 0.176714 0.205233 0.184827 0.184952 0.16961 0.194323 0.176752 0.324942 0.354501 0.364151 0.4098 0.285245 0.305173 0.31167 0.33623 0.354501 0.373299 0.4098 0.439294 0.305173 0.316665 0.33623 0.353272 0.373299 0.373209 0.439294 0.43914 0.316665 0.31665 0.353272 0.353213 0.373209 0.354291 0.43914 0.409211 0.31665 0.305041 0.353213 0.336093 0.354291 0.324025 0.409211 0.363254 0.305041 0.285212 0.336093 0.310982 0.324025 0.290061 0.363254 0.317252 0.285212 0.261363 0.310982 0.280699 0.290061 0.257841 0.317252 0.276276 0.261363 0.237093 0.280699 0.251265 0.257841 0.229436 0.276276 0.24219 0.237093 0.214479 0.251265 0.224802 0.229436 0.205233 0.24219 0.214231 0.214479 0.194323 0.224802 0.201915 0.205233 0.184827 0.214231 0.191314 0.194323 0.176752 0.201915 0.182406 0.4098 0.439294 0.455032 0.490397 0.33623 0.353272 0.36069 0.381633 0.439294 0.43914 0.490397 0.490218 0.353272 0.353213 0.381633 0.381567 0.43914 0.409211 0.490218 0.454359 0.353213 0.336093 0.381567 0.360587 0.363254 0.317252 0.395533 0.337668 0.310982 0.280699 0.329578 0.294531 0.317252 0.276276 0.337668 0.289434 0.280699 0.251265 0.294531 0.261051 0.276276 0.24219 0.289434 0.250949 0.251265 0.224802 0.261051 0.231739 0.24219 0.214231 0.250949 0.220237 0.224802 0.201915 0.231739 0.206908 0.214231 0.191314 0.220237 0.195537 0.201915 0.182406 0.206908 0.186056 0.396766 0.455032 0.413705 0.473394 0.330364 0.36069 0.337177 0.371569 0.455032 0.490397 0.473394 0.521782 0.36069 0.381633 0.371569 0.393494 0.490397 0.490218 0.521782 0.521602 0.381633 0.381567 0.393494 0.393426 0.490218 0.454359 0.521602 0.473024 0.381567 0.360587 0.393426 0.371457 0.454359 0.395533 0.473024 0.410604 0.360587 0.329578 0.371457 0.337917 0.395533 0.337668 0.410604 0.345534 0.329578 0.294531 0.337917 0.29975 0.337668 0.289434 0.345534 0.294078 0.294531 0.261051 0.29975 0.264581 0.289434 0.250949 0.294078 0.254165 0.261051 0.231739 0.264581 0.234185 0.250949 0.220237 0.254165 0.22238 0.231739 0.206908 0.234185 0.208655 0.220237 0.195537 0.22238 0.196998 0.206908 0.186056 0.208655 0.187323 0.413705 0.473394 0.396825 0.455104 0.337177 0.371569 0.33039 0.360717 0.473394 0.521782 0.455104 0.490427 0.371569 0.393494 0.360717 0.381662 0.521782 0.521602 0.490427 0.490256 0.393494 0.393426 0.381662 0.381595 0.521602 0.473024 0.490256 0.45444 0.393426 0.371457 0.381595 0.360616 0.473024 0.410604 0.45444 0.395589 0.371457 0.337917 0.360616 0.329602 0.410604 0.345534 0.395589 0.337699 0.337917 0.29975 0.329602 0.294547 0.345534 0.294078 0.337699 0.28945 0.29975 0.264581 0.294547 0.261061 0.294078 0.254165 0.28945 0.250958 0.264581 0.234185 0.261061 0.231745 0.254165 0.22238 0.250958 0.220243 0.234185 0.208655 0.231745 0.206912 0.22238 0.196998 0.220243 0.195541 0.208655 0.187323 0.206912 0.186059 0.455104 0.490427 0.409857 0.439464 0.360717 0.381662 0.336282 0.353322 0.490427 0.490256 0.439464 0.439318 0.381662 0.381595 0.353322 0.353261 0.490256 0.45444 0.439318 0.409303 0.381595 0.360616 0.353261 0.33613 0.395589 0.337699 0.363337 0.317293 0.329602 0.294547 0.311011 0.280722 0.337699 0.28945 0.317293 0.276299 0.294547 0.261061 0.280722 0.25128 0.28945 0.250958 0.276299 0.242204 0.261061 0.231745 0.25128 0.224812 0.250958 0.220243 0.242204 0.21424 0.231745 0.206912 0.224812 0.201922 0.220243 0.195541 0.21424 0.191321 0.206912 0.186059 0.201922 0.182412 0.364211 0.409857 0.325113 0.35462 0.311719 0.336282 0.285293 0.305219 0.409857 0.439464 0.35462 0.3733 0.336282 0.353322 0.305219 0.316707 0.439464 0.439318 0.3733 0.373208 0.353322 0.353261 0.316707 0.316679 0.439318 0.409303 0.373208 0.354301 0.353261 0.33613 0.316679 0.30507 0.409303 0.363337 0.354301 0.324046 0.33613 0.311011 0.30507 0.285235 0.363337 0.317293 0.324046 0.290094 0.311011 0.280722 0.285235 0.26138 0.317293 0.276299 0.290094 0.257861 0.280722 0.