<?xml version="1.0" ?> 
<!-- 
# vtk DataFile Version 3.0
#This file was generated by the deal.II library on 16:48:56 at 2019/11/27
-->
<VTKFile type="UnstructuredGrid" version="0.1" byte_order="LittleEndian">
<UnstructuredGrid>
<Piece NumberOfPoints="49384" NumberOfCells="6173" >
  <Points>
    <DataArray type="Float32" NumberOfComponents="3" format="ascii">
-50 -50 0
-40 -50 0
-50 -40 0
-40 -40 0
-50 -50 10
-40 -50 10
-50 -40 10
-40 -40 10
-40 -50 0
-30 -50 0
-40 -40 0
-30 -40 0
-40 -50 10
-30 -50 10
-40 -40 10
-30 -40 10
-30 -50 0
-20 -50 0
-30 -40 0
-20 -40 0
-30 -50 10
-20 -50 10
-30 -40 10
-20 -40 10
-20 -50 0
-10 -50 0
-20 -40 0
-10 -40 0
-20 -50 10
-10 -50 10
-20 -40 10
-10 -40 10
-10 -50 0
0 -50 0
-10 -40 0
0 -40 0
-10 -50 10
0 -50 10
-10 -40 10
0 -40 10
0 -50 0
10 -50 0
0 -40 0
10 -40 0
0 -50 10
10 -50 10
0 -40 10
10 -40 10
10 -50 0
20 -50 0
10 -40 0
20 -40 0
10 -50 10
20 -50 10
10 -40 10
20 -40 10
20 -50 0
30 -50 0
20 -40 0
30 -40 0
20 -50 10
30 -50 10
20 -40 10
30 -40 10
30 -50 0
40 -50 0
30 -40 0
40 -40 0
30 -50 10
40 -50 10
30 -40 10
40 -40 10
40 -50 0
50 -50 0
40 -40 0
50 -40 0
40 -50 10
50 -50 10
40 -40 10
50 -40 10
-50 -40 0
-40 -40 0
-50 -30 0
-40 -30 0
-50 -40 10
-40 -40 10
-50 -30 10
-40 -30 10
-40 -40 0
-30 -40 0
-40 -30 0
-30 -30 0
-40 -40 10
-30 -40 10
-40 -30 10
-30 -30 10
-30 -40 0
-20 -40 0
-30 -30 0
-20 -30 0
-30 -40 10
-20 -40 10
-30 -30 10
-20 -30 10
-20 -40 0
-10 -40 0
-20 -30 0
-10 -30 0
-20 -40 10
-10 -40 10
-20 -30 10
-10 -30 10
-10 -40 0
0 -40 0
-10 -30 0
0 -30 0
-10 -40 10
0 -40 10
-10 -30 10
0 -30 10
0 -40 0
10 -40 0
0 -30 0
10 -30 0
0 -40 10
10 -40 10
0 -30 10
10 -30 10
10 -40 0
20 -40 0
10 -30 0
20 -30 0
10 -40 10
20 -40 10
10 -30 10
20 -30 10
20 -40 0
30 -40 0
20 -30 0
30 -30 0
20 -40 10
30 -40 10
20 -30 10
30 -30 10
30 -40 0
40 -40 0
30 -30 0
40 -30 0
30 -40 10
40 -40 10
30 -30 10
40 -30 10
40 -40 0
50 -40 0
40 -30 0
50 -30 0
40 -40 10
50 -40 10
40 -30 10
50 -30 10
0 -30 0
10 -30 0
0 -20 0
10 -20 0
0 -30 10
10 -30 10
0 -20 10
10 -20 10
10 -30 0
20 -30 0
10 -20 0
20 -20 0
10 -30 10
20 -30 10
10 -20 10
20 -20 10
20 -30 0
30 -30 0
20 -20 0
30 -20 0
20 -30 10
30 -30 10
20 -20 10
30 -20 10
30 -30 0
40 -30 0
30 -20 0
40 -20 0
30 -30 10
40 -30 10
30 -20 10
40 -20 10
40 -30 0
50 -30 0
40 -20 0
50 -20 0
40 -30 10
50 -30 10
40 -20 10
50 -20 10
0 -20 0
10 -20 0
0 -10 0
10 -10 0
0 -20 10
10 -20 10
0 -10 10
10 -10 10
10 -20 0
20 -20 0
10 -10 0
20 -10 0
10 -20 10
20 -20 10
10 -10 10
20 -10 10
20 -20 0
30 -20 0
20 -10 0
30 -10 0
20 -20 10
30 -20 10
20 -10 10
30 -10 10
30 -20 0
40 -20 0
30 -10 0
40 -10 0
30 -20 10
40 -20 10
30 -10 10
40 -10 10
40 -20 0
50 -20 0
40 -10 0
50 -10 0
40 -20 10
50 -20 10
40 -10 10
50 -10 10
20 -10 0
30 -10 0
20 0 0
30 0 0
20 -10 10
30 -10 10
20 0 10
30 0 10
30 -10 0
40 -10 0
30 0 0
40 0 0
30 -10 10
40 -10 10
30 0 10
40 0 10
40 -10 0
50 -10 0
40 0 0
50 0 0
40 -10 10
50 -10 10
40 0 10
50 0 10
20 0 0
30 0 0
20 10 0
30 10 0
20 0 10
30 0 10
20 10 10
30 10 10
30 0 0
40 0 0
30 10 0
40 10 0
30 0 10
40 0 10
30 10 10
40 10 10
40 0 0
50 0 0
40 10 0
50 10 0
40 0 10
50 0 10
40 10 10
50 10 10
0 10 0
10 10 0
0 20 0
10 20 0
0 10 10
10 10 10
0 20 10
10 20 10
10 10 0
20 10 0
10 20 0
20 20 0
10 10 10
20 10 10
10 20 10
20 20 10
20 10 0
30 10 0
20 20 0
30 20 0
20 10 10
30 10 10
20 20 10
30 20 10
30 10 0
40 10 0
30 20 0
40 20 0
30 10 10
40 10 10
30 20 10
40 20 10
40 10 0
50 10 0
40 20 0
50 20 0
40 10 10
50 10 10
40 20 10
50 20 10
0 20 0
10 20 0
0 30 0
10 30 0
0 20 10
10 20 10
0 30 10
10 30 10
10 20 0
20 20 0
10 30 0
20 30 0
10 20 10
20 20 10
10 30 10
20 30 10
20 20 0
30 20 0
20 30 0
30 30 0
20 20 10
30 20 10
20 30 10
30 30 10
30 20 0
40 20 0
30 30 0
40 30 0
30 20 10
40 20 10
30 30 10
40 30 10
40 20 0
50 20 0
40 30 0
50 30 0
40 20 10
50 20 10
40 30 10
50 30 10
-50 30 0
-40 30 0
-50 40 0
-40 40 0
-50 30 10
-40 30 10
-50 40 10
-40 40 10
-40 30 0
-30 30 0
-40 40 0
-30 40 0
-40 30 10
-30 30 10
-40 40 10
-30 40 10
-30 30 0
-20 30 0
-30 40 0
-20 40 0
-30 30 10
-20 30 10
-30 40 10
-20 40 10
-20 30 0
-10 30 0
-20 40 0
-10 40 0
-20 30 10
-10 30 10
-20 40 10
-10 40 10
-10 30 0
0 30 0
-10 40 0
0 40 0
-10 30 10
0 30 10
-10 40 10
0 40 10
0 30 0
10 30 0
0 40 0
10 40 0
0 30 10
10 30 10
0 40 10
10 40 10
10 30 0
20 30 0
10 40 0
20 40 0
10 30 10
20 30 10
10 40 10
20 40 10
20 30 0
30 30 0
20 40 0
30 40 0
20 30 10
30 30 10
20 40 10
30 40 10
30 30 0
40 30 0
30 40 0
40 40 0
30 30 10
40 30 10
30 40 10
40 40 10
40 30 0
50 30 0
40 40 0
50 40 0
40 30 10
50 30 10
40 40 10
50 40 10
-50 40 0
-40 40 0
-50 50 0
-40 50 0
-50 40 10
-40 40 10
-50 50 10
-40 50 10
-40 40 0
-30 40 0
-40 50 0
-30 50 0
-40 40 10
-30 40 10
-40 50 10
-30 50 10
-30 40 0
-20 40 0
-30 50 0
-20 50 0
-30 40 10
-20 40 10
-30 50 10
-20 50 10
-20 40 0
-10 40 0
-20 50 0
-10 50 0
-20 40 10
-10 40 10
-20 50 10
-10 50 10
-10 40 0
0 40 0
-10 50 0
0 50 0
-10 40 10
0 40 10
-10 50 10
0 50 10
0 40 0
10 40 0
0 50 0
10 50 0
0 40 10
10 40 10
0 50 10
10 50 10
10 40 0
20 40 0
10 50 0
20 50 0
10 40 10
20 40 10
10 50 10
20 50 10
20 40 0
30 40 0
20 50 0
30 50 0
20 40 10
30 40 10
20 50 10
30 50 10
30 40 0
40 40 0
30 50 0
40 50 0
30 40 10
40 40 10
30 50 10
40 50 10
40 40 0
50 40 0
40 50 0
50 50 0
40 40 10
50 40 10
40 50 10
50 50 10
-50 -50 10
-40 -50 10
-50 -40 10
-40 -40 10
-50 -50 20
-40 -50 20
-50 -40 20
-40 -40 20
-40 -50 10
-30 -50 10
-40 -40 10
-30 -40 10
-40 -50 20
-30 -50 20
-40 -40 20
-30 -40 20
-30 -50 10
-20 -50 10
-30 -40 10
-20 -40 10
-30 -50 20
-20 -50 20
-30 -40 20
-20 -40 20
-20 -50 10
-10 -50 10
-20 -40 10
-10 -40 10
-20 -50 20
-10 -50 20
-20 -40 20
-10 -40 20
-10 -50 10
0 -50 10
-10 -40 10
0 -40 10
-10 -50 20
0 -50 20
-10 -40 20
0 -40 20
0 -50 10
10 -50 10
0 -40 10
10 -40 10
0 -50 20
10 -50 20
0 -40 20
10 -40 20
10 -50 10
20 -50 10
10 -40 10
20 -40 10
10 -50 20
20 -50 20
10 -40 20
20 -40 20
20 -50 10
30 -50 10
20 -40 10
30 -40 10
20 -50 20
30 -50 20
20 -40 20
30 -40 20
30 -50 10
40 -50 10
30 -40 10
40 -40 10
30 -50 20
40 -50 20
30 -40 20
40 -40 20
40 -50 10
50 -50 10
40 -40 10
50 -40 10
40 -50 20
50 -50 20
40 -40 20
50 -40 20
-50 -40 10
-40 -40 10
-50 -30 10
-40 -30 10
-50 -40 20
-40 -40 20
-50 -30 20
-40 -30 20
-40 -40 10
-30 -40 10
-40 -30 10
-30 -30 10
-40 -40 20
-30 -40 20
-40 -30 20
-30 -30 20
-30 -40 10
-20 -40 10
-30 -30 10
-20 -30 10
-30 -40 20
-20 -40 20
-30 -30 20
-20 -30 20
-20 -40 10
-10 -40 10
-20 -30 10
-10 -30 10
-20 -40 20
-10 -40 20
-20 -30 20
-10 -30 20
-10 -40 10
0 -40 10
-10 -30 10
0 -30 10
-10 -40 20
0 -40 20
-10 -30 20
0 -30 20
0 -40 10
10 -40 10
0 -30 10
10 -30 10
0 -40 20
10 -40 20
0 -30 20
10 -30 20
10 -40 10
20 -40 10
10 -30 10
20 -30 10
10 -40 20
20 -40 20
10 -30 20
20 -30 20
20 -40 10
30 -40 10
20 -30 10
30 -30 10
20 -40 20
30 -40 20
20 -30 20
30 -30 20
30 -40 10
40 -40 10
30 -30 10
40 -30 10
30 -40 20
40 -40 20
30 -30 20
40 -30 20
40 -40 10
50 -40 10
40 -30 10
50 -30 10
40 -40 20
50 -40 20
40 -30 20
50 -30 20
0 -30 10
10 -30 10
0 -20 10
10 -20 10
0 -30 20
10 -30 20
0 -20 20
10 -20 20
10 -30 10
20 -30 10
10 -20 10
20 -20 10
10 -30 20
20 -30 20
10 -20 20
20 -20 20
20 -30 10
30 -30 10
20 -20 10
30 -20 10
20 -30 20
30 -30 20
20 -20 20
30 -20 20
30 -30 10
40 -30 10
30 -20 10
40 -20 10
30 -30 20
40 -30 20
30 -20 20
40 -20 20
40 -30 10
50 -30 10
40 -20 10
50 -20 10
40 -30 20
50 -30 20
40 -20 20
50 -20 20
0 -20 10
10 -20 10
0 -10 10
10 -10 10
0 -20 20
10 -20 20
0 -10 20
10 -10 20
10 -20 10
20 -20 10
10 -10 10
20 -10 10
10 -20 20
20 -20 20
10 -10 20
20 -10 20
20 -20 10
30 -20 10
20 -10 10
30 -10 10
20 -20 20
30 -20 20
20 -10 20
30 -10 20
30 -20 10
40 -20 10
30 -10 10
40 -10 10
30 -20 20
40 -20 20
30 -10 20
40 -10 20
40 -20 10
50 -20 10
40 -10 10
50 -10 10
40 -20 20
50 -20 20
40 -10 20
50 -10 20
0 -10 10
10 -10 10
0 0 10
10 0 10
0 -10 20
10 -10 20
0 0 20
10 0 20
10 -10 10
20 -10 10
10 0 10
20 0 10
10 -10 20
20 -10 20
10 0 20
20 0 20
20 -10 10
30 -10 10
20 0 10
30 0 10
20 -10 20
30 -10 20
20 0 20
30 0 20
30 -10 10
40 -10 10
30 0 10
40 0 10
30 -10 20
40 -10 20
30 0 20
40 0 20
40 -10 10
50 -10 10
40 0 10
50 0 10
40 -10 20
50 -10 20
40 0 20
50 0 20
0 0 10
10 0 10
0 10 10
10 10 10
0 0 20
10 0 20
0 10 20
10 10 20
10 0 10
20 0 10
10 10 10
20 10 10
10 0 20
20 0 20
10 10 20
20 10 20
20 0 10
30 0 10
20 10 10
30 10 10
20 0 20
30 0 20
20 10 20
30 10 20
30 0 10
40 0 10
30 10 10
40 10 10
30 0 20
40 0 20
30 10 20
40 10 20
40 0 10
50 0 10
40 10 10
50 10 10
40 0 20
50 0 20
40 10 20
50 10 20
0 10 10
10 10 10
0 20 10
10 20 10
0 10 20
10 10 20
0 20 20
10 20 20
10 10 10
20 10 10
10 20 10
20 20 10
10 10 20
20 10 20
10 20 20
20 20 20
20 10 10
30 10 10
20 20 10
30 20 10
20 10 20
30 10 20
20 20 20
30 20 20
30 10 10
40 10 10
30 20 10
40 20 10
30 10 20
40 10 20
30 20 20
40 20 20
40 10 10
50 10 10
40 20 10
50 20 10
40 10 20
50 10 20
40 20 20
50 20 20
0 20 10
10 20 10
0 30 10
10 30 10
0 20 20
10 20 20
0 30 20
10 30 20
10 20 10
20 20 10
10 30 10
20 30 10
10 20 20
20 20 20
10 30 20
20 30 20
20 20 10
30 20 10
20 30 10
30 30 10
20 20 20
30 20 20
20 30 20
30 30 20
30 20 10
40 20 10
30 30 10
40 30 10
30 20 20
40 20 20
30 30 20
40 30 20
40 20 10
50 20 10
40 30 10
50 30 10
40 20 20
50 20 20
40 30 20
50 30 20
-50 30 10
-40 30 10
-50 40 10
-40 40 10
-50 30 20
-40 30 20
-50 40 20
-40 40 20
-40 30 10
-30 30 10
-40 40 10
-30 40 10
-40 30 20
-30 30 20
-40 40 20
-30 40 20
-30 30 10
-20 30 10
-30 40 10
-20 40 10
-30 30 20
-20 30 20
-30 40 20
-20 40 20
-20 30 10
-10 30 10
-20 40 10
-10 40 10
-20 30 20
-10 30 20
-20 40 20
-10 40 20
-10 30 10
0 30 10
-10 40 10
0 40 10
-10 30 20
0 30 20
-10 40 20
0 40 20
0 30 10
10 30 10
0 40 10
10 40 10
0 30 20
10 30 20
0 40 20
10 40 20
10 30 10
20 30 10
10 40 10
20 40 10
10 30 20
20 30 20
10 40 20
20 40 20
20 30 10
30 30 10
20 40 10
30 40 10
20 30 20
30 30 20
20 40 20
30 40 20
30 30 10
40 30 10
30 40 10
40 40 10
30 30 20
40 30 20
30 40 20
40 40 20
40 30 10
50 30 10
40 40 10
50 40 10
40 30 20
50 30 20
40 40 20
50 40 20
-50 40 10
-40 40 10
-50 50 10
-40 50 10
-50 40 20
-40 40 20
-50 50 20
-40 50 20
-40 40 10
-30 40 10
-40 50 10
-30 50 10
-40 40 20
-30 40 20
-40 50 20
-30 50 20
-30 40 10
-20 40 10
-30 50 10
-20 50 10
-30 40 20
-20 40 20
[...]
  <PointData Scalars="scalars">
    <DataArray type="Float32" Name="u" format="ascii">
0.293126 0.312029 0.355286 0.385974 0.28835 0.306037 0.34684 0.374784 0.312029 0.318566 0.385974 0.397699 0.306037 0.312234 0.374784 0.385427 0.318566 0.312267 0.397699 0.385406 0.312234 0.306353 0.385427 0.374506 0.312267 0.295608 0.385406 0.355735 0.306353 0.290573 0.374506 0.347132 0.295608 0.272776 0.355735 0.318259 0.290573 0.268912 0.347132 0.312125 0.272776 0.24877 0.318259 0.281554 0.268912 0.245837 0.312125 0.277326 0.24877 0.225344 0.281554 0.24873 0.245837 0.223155 0.277326 0.245787 0.225344 0.203946 0.24873 0.220813 0.223155 0.202315 0.245787 0.218746 0.203946 0.185047 0.220813 0.197385 0.202315 0.183826 0.218746 0.195904 0.185047 0.168333 0.197385 0.177879 0.183826 0.167417 0.195904 0.176795 0.355286 0.385974 0.445823 0.507352 0.34684 0.374784 0.429779 0.481561 0.385974 0.397699 0.507352 0.530258 0.374784 0.385427 0.481561 0.500937 0.397699 0.385406 0.530258 0.50092 0.385427 0.374506 0.500937 0.47889 0.385406 0.355735 0.50092 0.445178 0.374506 0.347132 0.47889 0.428401 0.355735 0.318259 0.445178 0.375492 0.347132 0.312125 0.428401 0.365537 0.318259 0.281554 0.375492 0.318108 0.312125 0.277326 0.365537 0.312002 0.281554 0.24873 0.318108 0.273013 0.277326 0.245787 0.312002 0.269138 0.24873 0.220813 0.273013 0.23727 0.245787 0.218746 0.269138 0.234699 0.220813 0.197385 0.23727 0.208916 0.218746 0.195904 0.234699 0.207162 0.197385 0.177879 0.208916 0.186184 0.195904 0.176795 0.207162 0.184941 0.375492 0.318108 0.443197 0.355779 0.365537 0.312002 0.427596 0.347142 0.318108 0.273013 0.355779 0.295657 0.312002 0.269138 0.347142 0.290782 0.273013 0.23727 0.295657 0.251538 0.269138 0.234699 0.290782 0.248479 0.23727 0.208916 0.251538 0.218522 0.234699 0.207162 0.248479 0.216509 0.208916 0.186184 0.218522 0.192841 0.207162 0.184941 0.216509 0.191455 0.443197 0.355779 0.502945 0.383798 0.427596 0.347142 0.48089 0.37312 0.355779 0.295657 0.383798 0.311843 0.347142 0.290782 0.37312 0.305834 0.295657 0.251538 0.311843 0.262008 0.290782 0.248479 0.305834 0.258725 0.251538 0.218522 0.262008 0.224968 0.248479 0.216509 0.258725 0.22272 0.218522 0.192841 0.224968 0.197186 0.216509 0.191455 0.22272 0.195713 0.311843 0.262008 0.32002 0.265477 0.305834 0.258725 0.311866 0.262001 0.262008 0.224968 0.265477 0.227279 0.258725 0.22272 0.262001 0.224966 0.224968 0.197186 0.227279 0.198697 0.22272 0.195713 0.224966 0.197183 0.32002 0.265477 0.311876 0.261994 0.311866 0.262001 0.30573 0.258709 0.265477 0.227279 0.261994 0.224961 0.262001 0.224966 0.258709 0.222714 0.227279 0.198697 0.224961 0.197182 0.224966 0.197183 0.222714 0.195709 0.503325 0.383182 0.444778 0.355711 0.481628 0.373437 0.428084 0.347132 0.383182 0.311876 0.355711 0.295613 0.373437 0.30573 0.347132 0.290746 0.311876 0.261994 0.295613 0.251517 0.30573 0.258709 0.290746 0.248462 0.261994 0.224961 0.251517 0.218512 0.258709 0.222714 0.248462 0.216499 0.224961 0.197182 0.218512 0.192834 0.222714 0.195709 0.216499 0.191449 0.444778 0.355711 0.375383 0.318126 0.428084 0.347132 0.365537 0.311998 0.355711 0.295613 0.318126 0.272985 0.347132 0.290746 0.311998 0.269118 0.295613 0.251517 0.272985 0.237255 0.290746 0.248462 0.269118 0.234685 0.251517 0.218512 0.237255 0.208905 0.248462 0.216499 0.234685 0.207152 0.218512 0.192834 0.208905 0.186176 0.216499 0.191449 0.207152 0.184933 0.44579 0.507312 0.355271 0.385957 0.429757 0.481534 0.34683 0.374774 0.507312 0.530209 0.385957 0.397681 0.481534 0.500905 0.374774 0.385417 0.530209 0.500848 0.397681 0.385392 0.500905 0.47885 0.385417 0.374499 0.500848 0.445237 0.385392 0.355735 0.47885 0.428432 0.374499 0.347133 0.445237 0.375383 0.355735 0.318263 0.428432 0.365537 0.347133 0.312122 0.375383 0.318126 0.318263 0.281541 0.365537 0.311998 0.312122 0.277321 0.318126 0.272985 0.281541 0.248722 0.311998 0.269118 0.277321 0.245779 0.272985 0.237255 0.248722 0.220802 0.269118 0.234685 0.245779 0.218736 0.237255 0.208905 0.220802 0.197376 0.234685 0.207152 0.218736 0.195896 0.208905 0.186176 0.197376 0.177871 0.207152 0.184933 0.195896 0.176787 0.355271 0.385957 0.293116 0.312019 0.34683 0.374774 0.288343 0.30603 0.385957 0.397681 0.312019 0.318556 0.374774 0.385417 0.30603 0.312228 0.397681 0.385392 0.318556 0.31226 0.385417 0.374499 0.312228 0.306349 0.385392 0.355735 0.31226 0.295606 0.374499 0.347133 0.306349 0.290572 0.355735 0.318263 0.295606 0.272771 0.347133 0.312122 0.290572 0.268911 0.318263 0.281541 0.272771 0.248766 0.312122 0.277321 0.268911 0.245833 0.281541 0.248722 0.248766 0.225335 0.277321 0.245779 0.245833 0.223149 0.248722 0.220802 0.225335 0.203938 0.245779 0.218736 0.223149 0.202307 0.220802 0.197376 0.203938 0.185039 0.218736 0.195896 0.202307 0.183818 0.197376 0.177871 0.185039 0.168326 0.195896 0.176787 0.183818 0.16741 0.28835 0.306037 0.34684 0.374784 0.27546 0.289244 0.325109 0.346869 0.306037 0.312234 0.374784 0.385427 0.289244 0.295497 0.346869 0.355796 0.312234 0.306353 0.385427 0.374506 0.295497 0.29055 0.355796 0.347124 0.306353 0.290573 0.374506 0.347132 0.29055 0.276438 0.347124 0.323718 0.290573 0.268912 0.347132 0.312125 0.276438 0.258264 0.323718 0.29576 0.268912 0.245837 0.312125 0.277326 0.258264 0.237616 0.29576 0.265639 0.245837 0.223155 0.277326 0.245787 0.237616 0.216934 0.265639 0.237559 0.223155 0.202315 0.245787 0.218746 0.216934 0.197642 0.237559 0.212865 0.202315 0.183826 0.218746 0.195904 0.197642 0.180298 0.212865 0.19165 0.183826 0.167417 0.195904 0.176795 0.180298 0.164753 0.19165 0.173655 0.34684 0.374784 0.429779 0.481561 0.325109 0.346869 0.388389 0.428104 0.374784 0.385427 0.481561 0.500937 0.346869 0.355796 0.428104 0.445314 0.385427 0.374506 0.500937 0.47889 0.355796 0.347124 0.445314 0.428501 0.374506 0.347132 0.47889 0.428401 0.347124 0.323718 0.428501 0.386262 0.347132 0.312125 0.428401 0.365537 0.323718 0.29576 0.386262 0.339763 0.312125 0.277326 0.365537 0.312002 0.29576 0.265639 0.339763 0.295736 0.277326 0.245787 0.312002 0.269138 0.265639 0.237559 0.295736 0.258302 0.245787 0.218746 0.269138 0.234699 0.237559 0.212865 0.258302 0.22747 0.218746 0.195904 0.234699 0.207162 0.212865 0.19165 0.22747 0.202151 0.195904 0.176795 0.207162 0.184941 0.19165 0.173655 0.202151 0.181352 0.365537 0.312002 0.427596 0.347142 0.339763 0.295736 0.386442 0.323586 0.312002 0.269138 0.347142 0.290782 0.295736 0.258302 0.323586 0.277015 0.269138 0.234699 0.290782 0.248479 0.258302 0.22747 0.277015 0.239956 0.234699 0.207162 0.248479 0.216509 0.22747 0.202151 0.239956 0.210767 0.207162 0.184941 0.216509 0.191455 0.202151 0.181352 0.210767 0.187484 0.427596 0.347142 0.48089 0.37312 0.386442 0.323586 0.428192 0.347064 0.347142 0.290782 0.37312 0.305834 0.323586 0.277015 0.347064 0.290752 0.290782 0.248479 0.305834 0.258725 0.277015 0.239956 0.290752 0.248475 0.248479 0.216509 0.258725 0.22272 0.239956 0.210767 0.248475 0.216511 0.216509 0.191455 0.22272 0.195713 0.210767 0.187484 0.216511 0.191456 0.48089 0.37312 0.503439 0.383263 0.428192 0.347064 0.444611 0.355754 0.37312 0.305834 0.383263 0.311866 0.347064 0.290752 0.355754 0.295637 0.305834 0.258725 0.311866 0.262001 0.290752 0.248475 0.295637 0.251523 0.258725 0.22272 0.262001 0.224966 0.248475 0.216511 0.251523 0.218524 0.22272 0.195713 0.224966 0.197183 0.216511 0.191456 0.218524 0.192839 0.503439 0.383263 0.481628 0.373437 0.444611 0.355754 0.428136 0.347116 0.383263 0.311866 0.373437 0.30573 0.355754 0.295637 0.347116 0.290739 0.311866 0.262001 0.30573 0.258709 0.295637 0.251523 0.290739 0.248467 0.262001 0.224966 0.258709 0.222714 0.251523 0.218524 0.248467 0.216506 0.224966 0.197183 0.222714 0.195709 0.218524 0.192839 0.216506 0.191453 0.481628 0.373437 0.428084 0.347132 0.428136 0.347116 0.386423 0.323559 0.373437 0.30573 0.347132 0.290746 0.347116 0.290739 0.323559 0.276999 0.30573 0.258709 0.290746 0.248462 0.290739 0.248467 0.276999 0.239944 0.258709 0.222714 0.248462 0.216499 0.248467 0.216506 0.239944 0.21076 0.222714 0.195709 0.216499 0.191449 0.216506 0.191453 0.21076 0.187478 0.428084 0.347132 0.365537 0.311998 0.386423 0.323559 0.339793 0.295736 0.347132 0.290746 0.311998 0.269118 0.323559 0.276999 0.295736 0.258291 0.290746 0.248462 0.269118 0.234685 0.276999 0.239944 0.258291 0.22746 0.248462 0.216499 0.234685 0.207152 0.239944 0.21076 0.22746 0.202143 0.216499 0.191449 0.207152 0.184933 0.21076 0.187478 0.202143 0.181346 0.429757 0.481534 0.34683 0.374774 0.388381 0.428126 0.325109 0.346871 0.481534 0.500905 0.374774 0.385417 0.428126 0.445374 0.346871 0.355801 0.500905 0.47885 0.385417 0.374499 0.445374 0.428528 0.355801 0.34713 0.47885 0.428432 0.374499 0.347133 0.428528 0.386278 0.34713 0.323724 0.428432 0.365537 0.347133 0.312122 0.386278 0.339793 0.323724 0.295762 0.365537 0.311998 0.312122 0.277321 0.339793 0.295736 0.295762 0.265637 0.311998 0.269118 0.277321 0.245779 0.295736 0.258291 0.265637 0.237553 0.269118 0.234685 0.245779 0.218736 0.258291 0.22746 0.237553 0.212858 0.234685 0.207152 0.218736 0.195896 0.22746 0.202143 0.212858 0.191643 0.207152 0.184933 0.195896 0.176787 0.202143 0.181346 0.191643 0.173649 0.34683 0.374774 0.288343 0.30603 0.325109 0.346871 0.275459 0.289244 0.374774 0.385417 0.30603 0.312228 0.346871 0.355801 0.289244 0.295498 0.385417 0.374499 0.312228 0.306349 0.355801 0.34713 0.295498 0.290552 0.374499 0.347133 0.306349 0.290572 0.34713 0.323724 0.290552 0.27644 0.347133 0.312122 0.290572 0.268911 0.323724 0.295762 0.27644 0.258265 0.312122 0.277321 0.268911 0.245833 0.295762 0.265637 0.258265 0.237614 0.277321 0.245779 0.245833 0.223149 0.265637 0.237553 0.237614 0.216929 0.245779 0.218736 0.223149 0.202307 0.237553 0.212858 0.216929 0.197636 0.218736 0.195896 0.202307 0.183818 0.212858 0.191643 0.197636 0.180291 0.195896 0.176787 0.183818 0.16741 0.191643 0.173649 0.180291 0.164747 0.27546 0.289244 0.325109 0.346869 0.257327 0.2689 0.295563 0.311859 0.289244 0.295497 0.346869 0.355796 0.2689 0.272618 0.311859 0.318839 0.295497 0.29055 0.355796 0.347124 0.272618 0.268921 0.318839 0.311869 0.29055 0.276438 0.347124 0.323718 0.268921 0.258203 0.311869 0.295715 0.276438 0.258264 0.323718 0.29576 0.258203 0.242998 0.295715 0.273339 0.258264 0.237616 0.29576 0.265639 0.242998 0.225522 0.273339 0.249019 0.237616 0.216934 0.265639 0.237559 0.225522 0.2076 0.249019 0.225451 0.216934 0.197642 0.237559 0.212865 0.2076 0.190504 0.225451 0.204023 0.197642 0.180298 0.212865 0.19165 0.190504 0.174832 0.204023 0.185123 0.180298 0.164753 0.19165 0.173655 0.174832 0.160571 0.185123 0.168763 0.325109 0.346869 0.388389 0.428104 0.295563 0.311859 0.340381 0.365188 0.346869 0.355796 0.428104 0.445314 0.311859 0.318839 0.365188 0.376353 0.355796 0.347124 0.445314 0.428501 0.318839 0.311869 0.376353 0.365139 0.347124 0.323718 0.428501 0.386262 0.311869 0.295715 0.365139 0.339738 0.323718 0.29576 0.386262 0.339763 0.295715 0.273339 0.339738 0.306771 0.29576 0.265639 0.339763 0.295736 0.273339 0.249019 0.306771 0.273347 0.265639 0.237559 0.295736 0.258302 0.249019 0.225451 0.273347 0.242976 0.237559 0.212865 0.258302 0.22747 0.225451 0.204023 0.242976 0.216762 0.212865 0.19165 0.22747 0.202151 0.204023 0.185123 0.216762 0.194535 0.19165 0.173655 0.202151 0.181352 0.185123 0.168763 0.194535 0.175803 0.386262 0.339763 0.458752 0.386442 0.339738 0.306771 0.386279 0.339716 0.339763 0.295736 0.386442 0.323586 0.306771 0.273347 0.339716 0.295697 0.295736 0.258302 0.323586 0.277015 0.273347 0.242976 0.295697 0.258273 0.258302 0.22747 0.277015 0.239956 0.242976 0.216762 0.258273 0.227471 0.22747 0.202151 0.239956 0.210767 0.216762 0.194535 0.227471 0.202164 0.202151 0.181352 0.210767 0.187484 0.194535 0.175803 0.202164 0.181369 0.386442 0.323586 0.428192 0.347064 0.339716 0.295697 0.365171 0.311755 0.323586 0.277015 0.347064 0.290752 0.295697 0.258273 0.311755 0.269142 0.277015 0.239956 0.290752 0.248475 0.258273 0.227471 0.269142 0.234693 0.239956 0.210767 0.248475 0.216511 0.227471 0.202164 0.234693 0.20718 0.210767 0.187484 0.216511 0.191456 0.202164 0.181369 0.20718 0.18496 0.428192 0.347064 0.444611 0.355754 0.365171 0.311755 0.376277 0.318673 0.347064 0.290752 0.355754 0.295637 0.311755 0.269142 0.318673 0.272938 0.290752 0.248475 0.295637 0.251523 0.269142 0.234693 0.272938 0.237272 0.248475 0.216511 0.251523 0.218524 0.234693 0.20718 0.237272 0.208932 0.216511 0.191456 0.218524 0.192839 0.20718 0.18496 0.208932 0.186202 0.444611 0.355754 0.428136 0.347116 0.376277 0.318673 0.365138 0.311743 0.355754 0.295637 0.347116 0.290739 0.318673 0.272938 0.311743 0.269136 0.295637 0.251523 0.290739 0.248467 0.272938 0.237272 0.269136 0.234689 0.251523 0.218524 0.248467 0.216506 0.237272 0.208932 0.234689 0.207177 0.218524 0.192839 0.216506 0.191453 0.208932 0.186202 0.207177 0.184958 0.428136 0.347116 0.386423 0.323559 0.365138 0.311743 0.339727 0.295691 0.347116 0.290739 0.323559 0.276999 0.311743 0.269136 0.295691 0.258265 0.290739 0.248467 0.276999 0.239944 0.269136 0.234689 0.258265 0.227464 0.248467 0.216506 0.239944 0.21076 0.234689 0.207177 0.227464 0.202159 0.216506 0.191453 0.21076 0.187478 0.207177 0.184958 0.202159 0.181365 0.458821 0.386423 0.386278 0.339793 0.386192 0.339727 0.339763 0.306765 0.386423 0.323559 0.339793 0.295736 0.339727 0.295691 0.306765 0.273344 0.323559 0.276999 0.295736 0.258291 0.295691 0.258265 0.273344 0.24297 0.276999 0.239944 0.258291 0.22746 0.258265 0.227464 0.24297 0.216755 0.239944 0.21076 0.22746 0.202143 0.227464 0.202159 0.216755 0.194529 0.21076 0.187478 0.202143 0.181346 0.202159 0.181365 0.194529 0.175798 0.388381 0.428126 0.325109 0.346871 0.340408 0.3652 0.295567 0.311866 0.428126 0.445374 0.346871 0.355801 0.3652 0.376302 0.311866 0.318845 0.445374 0.428528 0.355801 0.34713 0.376302 0.365161 0.318845 0.311878 0.428528 0.386278 0.34713 0.323724 0.365161 0.339763 0.311878 0.295721 0.386278 0.339793 0.323724 0.295762 0.339763 0.306765 0.295721 0.273343 0.339793 0.295736 0.295762 0.265637 0.306765 0.273344 0.273343 0.249017 0.295736 0.258291 0.265637 0.237553 0.273344 0.24297 0.249017 0.225447 0.258291 0.22746 0.237553 0.212858 0.24297 0.216755 0.225447 0.204017 0.22746 0.202143 0.212858 0.191643 0.216755 0.194529 0.204017 0.185118 0.202143 0.181346 0.191643 0.173649 0.194529 0.175798 0.185118 0.168759 0.325109 0.346871 0.275459 0.289244 0.295567 0.311866 0.257331 0.268903 0.346871 0.355801 0.289244 0.295498 0.311866 0.318845 0.268903 0.272623 0.355801 0.34713 0.295498 0.290552 0.318845 0.311878 0.272623 0.268926 0.34713 0.323724 0.290552 0.27644 0.311878 0.295721 0.268926 0.258207 0.323724 0.295762 0.27644 0.258265 0.295721 0.273343 0.258207 0.242999 0.295762 0.265637 0.258265 0.237614 0.273343 0.249017 0.242999 0.225521 0.265637 0.237553 0.237614 0.216929 0.249017 0.225447 0.225521 0.207597 0.237553 0.212858 0.216929 0.197636 0.225447 0.204017 0.207597 0.190499 0.212858 0.191643 0.197636 0.180291 0.204017 0.185118 0.190499 0.174827 0.191643 0.173649 0.180291 0.164747 0.185118 0.168759 0.174827 0.160566 0.257327 0.2689 0.295563 0.311859 0.236826 0.245605 0.265389 0.277104 0.2689 0.272618 0.311859 0.318839 0.245605 0.248683 0.277104 0.281438 0.272618 0.268921 0.318839 0.311869 0.248683 0.245732 0.281438 0.277229 0.268921 0.258203 0.311869 0.295715 0.245732 0.237536 0.277229 0.265541 0.258203 0.242998 0.295715 0.273339 0.237536 0.225484 0.265541 0.248986 0.242998 0.225522 0.273339 0.249019 0.225484 0.211251 0.248986 0.230168 0.225522 0.2076 0.249019 0.225451 0.211251 0.196301 0.230168 0.211188 0.2076 0.190504 0.225451 0.204023 0.196301 0.181665 0.211188 0.193277 0.190504 0.174832 0.204023 0.185123 0.181665 0.167932 0.193277 0.17699 0.174832 0.160571 0.185123 0.168763 0.167932 0.155198 0.17699 0.162542 0.295563 0.311859 0.340381 0.365188 0.265389 0.277104 0.295423 0.311732 0.311859 0.318839 0.365188 0.376353 0.277104 0.281438 0.311732 0.318654 0.318839 0.311869 0.376353 0.365139 0.281438 0.277229 0.318654 0.311673 0.311869 0.295715 0.365139 0.339738 0.277229 0.265541 0.311673 0.295639 0.295715 0.273339 0.339738 0.306771 0.265541 0.248986 0.295639 0.273304 0.273339 0.249019 0.306771 0.273347 0.248986 0.230168 0.273304 0.248974 0.249019 0.225451 0.273347 0.242976 0.230168 0.211188 0.248974 0.225415 0.225451 0.204023 0.242976 0.216762 0.211188 0.193277 0.225415 0.204011 0.204023 0.185123 0.216762 0.194535 0.193277 0.17699 0.204011 0.185163 0.185123 0.168763 0.194535 0.175803 0.17699 0.162542 0.185163 0.168807 0.340381 0.365188 0.388552 0.427909 0.295423 0.311732 0.324637 0.347122 0.365188 0.376353 0.427909 0.444254 0.311732 0.318654 0.347122 0.355672 0.376353 0.365139 0.444254 0.42806 0.318654 0.311673 0.355672 0.346977 0.365139 0.339738 0.42806 0.386279 0.311673 0.295639 0.346977 0.323407 0.339738 0.306771 0.386279 0.339716 0.295639 0.273304 0.323407 0.295643 0.306771 0.273347 0.339716 0.295697 0.273304 0.248974 0.295643 0.265543 0.273347 0.242976 0.295697 0.258273 0.248974 0.225415 0.265543 0.237507 0.242976 0.216762 0.258273 0.227471 0.225415 0.204011 0.237507 0.212855 0.216762 0.194535 0.227471 0.202164 0.204011 0.185163 0.212855 0.191709 0.194535 0.175803 0.202164 0.181369 0.185163 0.168807 0.191709 0.17372 0.388552 0.427909 0.429316 0.48243 0.324637 0.347122 0.346813 0.374838 0.427909 0.444254 0.48243 0.505406 0.347122 0.355672 0.374838 0.385693 0.444254 0.42806 0.505406 0.480606 0.355672 0.346977 0.385693 0.374547 0.42806 0.386279 0.480606 0.428171 0.346977 0.323407 0.374547 0.346971 0.386279 0.339716 0.428171 0.365171 0.323407 0.295643 0.346971 0.311689 0.339716 0.295697 0.365171 0.311755 0.295643 0.265543 0.311689 0.277259 0.295697 0.258273 0.311755 0.269142 0.265543 0.237507 0.277259 0.24574 0.258273 0.227471 0.269142 0.234693 0.237507 0.212855 0.24574 0.21874 0.227471 0.202164 0.234693 0.20718 0.212855 0.191709 0.21874 0.195973 0.202164 0.181369 0.20718 0.18496 0.191709 0.17372 0.195973 0.176868 0.429316 0.48243 0.446331 0.505396 0.346813 0.374838 0.355308 0.385702 0.48243 0.505406 0.505396 0.530249 0.374838 0.385693 0.385702 0.397555 0.505406 0.480606 0.530249 0.500774 0.385693 0.374547 0.397555 0.385217 0.480606 0.428171 0.500774 0.445127 0.374547 0.346971 0.385217 0.35562 0.428171 0.365171 0.445127 0.376277 0.346971 0.311689 0.35562 0.318625 0.365171 0.311755 0.376277 0.318673 0.311689 0.277259 0.318625 0.281506 0.311755 0.269142 0.318673 0.272938 0.277259 0.24574 0.281506 0.24871 0.269142 0.234693 0.272938 0.237272 0.24574 0.21874 0.24871 0.220804 0.234693 0.20718 0.237272 0.208932 0.21874 0.195973 0.220804 0.197457 0.20718 0.18496 0.208932 0.186202 0.195973 0.176868 0.197457 0.177953 0.446331 0.505396 0.429617 0.480821 0.355308 0.385702 0.346736 0.374597 0.505396 0.530249 0.480821 0.500869 0.385702 0.397555 0.374597 0.385243 0.530249 0.500774 0.500869 0.478771 0.397555 0.385217 0.385243 0.374297 0.500774 0.445127 0.478771 0.428384 0.385217 0.35562 0.374297 0.346935 0.445127 0.376277 0.428384 0.365138 0.35562 0.318625 0.346935 0.311685 0.376277 0.318673 0.365138 0.311743 0.318625 0.281506 0.311685 0.277255 0.318673 0.272938 0.311743 0.269136 0.281506 0.24871 0.277255 0.245737 0.272938 0.237272 0.269136 0.234689 0.24871 0.220804 0.245737 0.218738 0.237272 0.208932 0.234689 0.207177 0.220804 0.197457 0.218738 0.195971 0.208932 0.186202 0.207177 0.184958 0.197457 0.177953 0.195971 0.176866 0.429617 0.480821 0.388354 0.428232 0.346736 0.374597 0.324576 0.347079 0.480821 0.500869 0.428232 0.445306 0.374597 0.385243 0.347079 0.355637 0.500869 0.478771 0.445306 0.428441 0.385243 0.374297 0.355637 0.346947 0.478771 0.428384 0.428441 0.386192 0.374297 0.346935 0.346947 0.323398 0.428384 0.365138 0.386192 0.339727 0.346935 0.311685 0.323398 0.295632 0.365138 0.311743 0.339727 0.295691 0.311685 0.277255 0.295632 0.265538 0.311743 0.269136 0.295691 0.258265 0.277255 0.245737 0.265538 0.237503 0.269136 0.234689 0.258265 0.227464 0.245737 0.218738 0.237503 0.212851 0.234689 0.207177 0.227464 0.202159 0.218738 0.195971 0.212851 0.191706 0.207177 0.184958 0.202159 0.181365 0.195971 0.176866 0.191706 0.173717 0.388354 0.428232 0.340408 0.3652 0.324576 0.347079 0.295415 0.311745 0.428232 0.44530