<?xml version="1.0" ?> 
<!-- 
# vtk DataFile Version 3.0
#This file was generated by the deal.II library on 16:50:35 at 2019/11/27
-->
<VTKFile type="UnstructuredGrid" version="0.1" byte_order="LittleEndian">
<UnstructuredGrid>
<Piece NumberOfPoints="9680" NumberOfCells="1210" >
  <Points>
    <DataArray type="Float32" NumberOfComponents="3" format="ascii">
-50 -50 0
-40 -50 0
-50 -40 0
-40 -40 0
-50 -50 10
-40 -50 10
-50 -40 10
-40 -40 10
-40 -50 0
-30 -50 0
-40 -40 0
-30 -40 0
-40 -50 10
-30 -50 10
-40 -40 10
-30 -40 10
-30 -50 0
-20 -50 0
-30 -40 0
-20 -40 0
-30 -50 10
-20 -50 10
-30 -40 10
-20 -40 10
-20 -50 0
-10 -50 0
-20 -40 0
-10 -40 0
-20 -50 10
-10 -50 10
-20 -40 10
-10 -40 10
-10 -50 0
0 -50 0
-10 -40 0
0 -40 0
-10 -50 10
0 -50 10
-10 -40 10
0 -40 10
0 -50 0
10 -50 0
0 -40 0
10 -40 0
0 -50 10
10 -50 10
0 -40 10
10 -40 10
10 -50 0
20 -50 0
10 -40 0
20 -40 0
10 -50 10
20 -50 10
10 -40 10
20 -40 10
20 -50 0
30 -50 0
20 -40 0
30 -40 0
20 -50 10
30 -50 10
20 -40 10
30 -40 10
30 -50 0
40 -50 0
30 -40 0
40 -40 0
30 -50 10
40 -50 10
30 -40 10
40 -40 10
40 -50 0
50 -50 0
40 -40 0
50 -40 0
40 -50 10
50 -50 10
40 -40 10
50 -40 10
-50 -40 0
-40 -40 0
-50 -30 0
-40 -30 0
-50 -40 10
-40 -40 10
-50 -30 10
-40 -30 10
-40 -40 0
-30 -40 0
-40 -30 0
-30 -30 0
-40 -40 10
-30 -40 10
-40 -30 10
-30 -30 10
-30 -40 0
-20 -40 0
-30 -30 0
-20 -30 0
-30 -40 10
-20 -40 10
-30 -30 10
-20 -30 10
-20 -40 0
-10 -40 0
-20 -30 0
-10 -30 0
-20 -40 10
-10 -40 10
-20 -30 10
-10 -30 10
-10 -40 0
0 -40 0
-10 -30 0
0 -30 0
-10 -40 10
0 -40 10
-10 -30 10
0 -30 10
0 -40 0
10 -40 0
0 -30 0
10 -30 0
0 -40 10
10 -40 10
0 -30 10
10 -30 10
10 -40 0
20 -40 0
10 -30 0
20 -30 0
10 -40 10
20 -40 10
10 -30 10
20 -30 10
20 -40 0
30 -40 0
20 -30 0
30 -30 0
20 -40 10
30 -40 10
20 -30 10
30 -30 10
30 -40 0
40 -40 0
30 -30 0
40 -30 0
30 -40 10
40 -40 10
30 -30 10
40 -30 10
40 -40 0
50 -40 0
40 -30 0
50 -30 0
40 -40 10
50 -40 10
40 -30 10
50 -30 10
-50 -30 0
-40 -30 0
-50 -20 0
-40 -20 0
-50 -30 10
-40 -30 10
-50 -20 10
-40 -20 10
-40 -30 0
-30 -30 0
-40 -20 0
-30 -20 0
-40 -30 10
-30 -30 10
-40 -20 10
-30 -20 10
-30 -30 0
-20 -30 0
-30 -20 0
-20 -20 0
-30 -30 10
-20 -30 10
-30 -20 10
-20 -20 10
-20 -30 0
-10 -30 0
-20 -20 0
-10 -20 0
-20 -30 10
-10 -30 10
-20 -20 10
-10 -20 10
-10 -30 0
0 -30 0
-10 -20 0
0 -20 0
-10 -30 10
0 -30 10
-10 -20 10
0 -20 10
0 -30 0
10 -30 0
0 -20 0
10 -20 0
0 -30 10
10 -30 10
0 -20 10
10 -20 10
10 -30 0
20 -30 0
10 -20 0
20 -20 0
10 -30 10
20 -30 10
10 -20 10
20 -20 10
20 -30 0
30 -30 0
20 -20 0
30 -20 0
20 -30 10
30 -30 10
20 -20 10
30 -20 10
30 -30 0
40 -30 0
30 -20 0
40 -20 0
30 -30 10
40 -30 10
30 -20 10
40 -20 10
40 -30 0
50 -30 0
40 -20 0
50 -20 0
40 -30 10
50 -30 10
40 -20 10
50 -20 10
-50 -20 0
-40 -20 0
-50 -10 0
-40 -10 0
-50 -20 10
-40 -20 10
-50 -10 10
-40 -10 10
-40 -20 0
-30 -20 0
-40 -10 0
-30 -10 0
-40 -20 10
-30 -20 10
-40 -10 10
-30 -10 10
-30 -20 0
-20 -20 0
-30 -10 0
-20 -10 0
-30 -20 10
-20 -20 10
-30 -10 10
-20 -10 10
-20 -20 0
-10 -20 0
-20 -10 0
-10 -10 0
-20 -20 10
-10 -20 10
-20 -10 10
-10 -10 10
-10 -20 0
0 -20 0
-10 -10 0
0 -10 0
-10 -20 10
0 -20 10
-10 -10 10
0 -10 10
0 -20 0
10 -20 0
0 -10 0
10 -10 0
0 -20 10
10 -20 10
0 -10 10
10 -10 10
10 -20 0
20 -20 0
10 -10 0
20 -10 0
10 -20 10
20 -20 10
10 -10 10
20 -10 10
20 -20 0
30 -20 0
20 -10 0
30 -10 0
20 -20 10
30 -20 10
20 -10 10
30 -10 10
30 -20 0
40 -20 0
30 -10 0
40 -10 0
30 -20 10
40 -20 10
30 -10 10
40 -10 10
40 -20 0
50 -20 0
40 -10 0
50 -10 0
40 -20 10
50 -20 10
40 -10 10
50 -10 10
-50 -10 0
-40 -10 0
-50 0 0
-40 0 0
-50 -10 10
-40 -10 10
-50 0 10
-40 0 10
-40 -10 0
-30 -10 0
-40 0 0
-30 0 0
-40 -10 10
-30 -10 10
-40 0 10
-30 0 10
30 -10 0
40 -10 0
30 0 0
40 0 0
30 -10 10
40 -10 10
30 0 10
40 0 10
40 -10 0
50 -10 0
40 0 0
50 0 0
40 -10 10
50 -10 10
40 0 10
50 0 10
-50 0 0
-40 0 0
-50 10 0
-40 10 0
-50 0 10
-40 0 10
-50 10 10
-40 10 10
-40 0 0
-30 0 0
-40 10 0
-30 10 0
-40 0 10
-30 0 10
-40 10 10
-30 10 10
30 0 0
40 0 0
30 10 0
40 10 0
30 0 10
40 0 10
30 10 10
40 10 10
40 0 0
50 0 0
40 10 0
50 10 0
40 0 10
50 0 10
40 10 10
50 10 10
-50 10 0
-40 10 0
-50 20 0
-40 20 0
-50 10 10
-40 10 10
-50 20 10
-40 20 10
-40 10 0
-30 10 0
-40 20 0
-30 20 0
-40 10 10
-30 10 10
-40 20 10
-30 20 10
-30 10 0
-20 10 0
-30 20 0
-20 20 0
-30 10 10
-20 10 10
-30 20 10
-20 20 10
-20 10 0
-10 10 0
-20 20 0
-10 20 0
-20 10 10
-10 10 10
-20 20 10
-10 20 10
-10 10 0
0 10 0
-10 20 0
0 20 0
-10 10 10
0 10 10
-10 20 10
0 20 10
0 10 0
10 10 0
0 20 0
10 20 0
0 10 10
10 10 10
0 20 10
10 20 10
10 10 0
20 10 0
10 20 0
20 20 0
10 10 10
20 10 10
10 20 10
20 20 10
20 10 0
30 10 0
20 20 0
30 20 0
20 10 10
30 10 10
20 20 10
30 20 10
30 10 0
40 10 0
30 20 0
40 20 0
30 10 10
40 10 10
30 20 10
40 20 10
40 10 0
50 10 0
40 20 0
50 20 0
40 10 10
50 10 10
40 20 10
50 20 10
-50 20 0
-40 20 0
-50 30 0
-40 30 0
-50 20 10
-40 20 10
-50 30 10
-40 30 10
-40 20 0
-30 20 0
-40 30 0
-30 30 0
-40 20 10
-30 20 10
-40 30 10
-30 30 10
-30 20 0
-20 20 0
-30 30 0
-20 30 0
-30 20 10
-20 20 10
-30 30 10
-20 30 10
-20 20 0
-10 20 0
-20 30 0
-10 30 0
-20 20 10
-10 20 10
-20 30 10
-10 30 10
-10 20 0
0 20 0
-10 30 0
0 30 0
-10 20 10
0 20 10
-10 30 10
0 30 10
0 20 0
10 20 0
0 30 0
10 30 0
0 20 10
10 20 10
0 30 10
10 30 10
10 20 0
20 20 0
10 30 0
20 30 0
10 20 10
20 20 10
10 30 10
20 30 10
20 20 0
30 20 0
20 30 0
30 30 0
20 20 10
30 20 10
20 30 10
30 30 10
30 20 0
40 20 0
30 30 0
40 30 0
30 20 10
40 20 10
30 30 10
40 30 10
40 20 0
50 20 0
40 30 0
50 30 0
40 20 10
50 20 10
40 30 10
50 30 10
-50 30 0
-40 30 0
-50 40 0
-40 40 0
-50 30 10
-40 30 10
-50 40 10
-40 40 10
-40 30 0
-30 30 0
-40 40 0
-30 40 0
-40 30 10
-30 30 10
-40 40 10
-30 40 10
-30 30 0
-20 30 0
-30 40 0
-20 40 0
-30 30 10
-20 30 10
-30 40 10
-20 40 10
-20 30 0
-10 30 0
-20 40 0
-10 40 0
-20 30 10
-10 30 10
-20 40 10
-10 40 10
-10 30 0
0 30 0
-10 40 0
0 40 0
-10 30 10
0 30 10
-10 40 10
0 40 10
0 30 0
10 30 0
0 40 0
10 40 0
0 30 10
10 30 10
0 40 10
10 40 10
10 30 0
20 30 0
10 40 0
20 40 0
10 30 10
20 30 10
10 40 10
20 40 10
20 30 0
30 30 0
20 40 0
30 40 0
20 30 10
30 30 10
20 40 10
30 40 10
30 30 0
40 30 0
30 40 0
40 40 0
30 30 10
40 30 10
30 40 10
40 40 10
40 30 0
50 30 0
40 40 0
50 40 0
40 30 10
50 30 10
40 40 10
50 40 10
-50 40 0
-40 40 0
-50 50 0
-40 50 0
-50 40 10
-40 40 10
-50 50 10
-40 50 10
-40 40 0
-30 40 0
-40 50 0
-30 50 0
-40 40 10
-30 40 10
-40 50 10
-30 50 10
-30 40 0
-20 40 0
-30 50 0
-20 50 0
-30 40 10
-20 40 10
-30 50 10
-20 50 10
-20 40 0
-10 40 0
-20 50 0
-10 50 0
-20 40 10
-10 40 10
-20 50 10
-10 50 10
-10 40 0
0 40 0
-10 50 0
0 50 0
-10 40 10
0 40 10
-10 50 10
0 50 10
0 40 0
10 40 0
0 50 0
10 50 0
0 40 10
10 40 10
0 50 10
10 50 10
10 40 0
20 40 0
10 50 0
20 50 0
10 40 10
20 40 10
10 50 10
20 50 10
20 40 0
30 40 0
20 50 0
30 50 0
20 40 10
30 40 10
20 50 10
30 50 10
30 40 0
40 40 0
30 50 0
40 50 0
30 40 10
40 40 10
30 50 10
40 50 10
40 40 0
50 40 0
40 50 0
50 50 0
40 40 10
50 40 10
40 50 10
50 50 10
-50 -50 10
-40 -50 10
-50 -40 10
-40 -40 10
-50 -50 20
-40 -50 20
-50 -40 20
-40 -40 20
-40 -50 10
-30 -50 10
-40 -40 10
-30 -40 10
-40 -50 20
-30 -50 20
-40 -40 20
-30 -40 20
-30 -50 10
-20 -50 10
-30 -40 10
-20 -40 10
-30 -50 20
-20 -50 20
-30 -40 20
-20 -40 20
-20 -50 10
-10 -50 10
-20 -40 10
-10 -40 10
-20 -50 20
-10 -50 20
-20 -40 20
-10 -40 20
-10 -50 10
0 -50 10
-10 -40 10
0 -40 10
-10 -50 20
0 -50 20
-10 -40 20
0 -40 20
0 -50 10
10 -50 10
0 -40 10
10 -40 10
0 -50 20
10 -50 20
0 -40 20
10 -40 20
10 -50 10
20 -50 10
10 -40 10
20 -40 10
10 -50 20
20 -50 20
10 -40 20
20 -40 20
20 -50 10
30 -50 10
20 -40 10
30 -40 10
20 -50 20
30 -50 20
20 -40 20
30 -40 20
30 -50 10
40 -50 10
30 -40 10
40 -40 10
30 -50 20
40 -50 20
30 -40 20
40 -40 20
40 -50 10
50 -50 10
40 -40 10
50 -40 10
40 -50 20
50 -50 20
40 -40 20
50 -40 20
-50 -40 10
-40 -40 10
-50 -30 10
-40 -30 10
-50 -40 20
-40 -40 20
-50 -30 20
-40 -30 20
-40 -40 10
-30 -40 10
-40 -30 10
-30 -30 10
-40 -40 20
-30 -40 20
-40 -30 20
-30 -30 20
-30 -40 10
-20 -40 10
-30 -30 10
-20 -30 10
-30 -40 20
-20 -40 20
-30 -30 20
-20 -30 20
-20 -40 10
-10 -40 10
-20 -30 10
-10 -30 10
-20 -40 20
-10 -40 20
-20 -30 20
-10 -30 20
-10 -40 10
0 -40 10
-10 -30 10
0 -30 10
-10 -40 20
0 -40 20
-10 -30 20
0 -30 20
0 -40 10
10 -40 10
0 -30 10
10 -30 10
0 -40 20
10 -40 20
0 -30 20
10 -30 20
10 -40 10
20 -40 10
10 -30 10
20 -30 10
10 -40 20
20 -40 20
10 -30 20
20 -30 20
20 -40 10
30 -40 10
20 -30 10
30 -30 10
20 -40 20
30 -40 20
20 -30 20
30 -30 20
30 -40 10
40 -40 10
30 -30 10
40 -30 10
30 -40 20
40 -40 20
30 -30 20
40 -30 20
40 -40 10
50 -40 10
40 -30 10
50 -30 10
40 -40 20
50 -40 20
40 -30 20
50 -30 20
-50 -30 10
-40 -30 10
-50 -20 10
-40 -20 10
-50 -30 20
-40 -30 20
-50 -20 20
-40 -20 20
-40 -30 10
-30 -30 10
-40 -20 10
-30 -20 10
-40 -30 20
-30 -30 20
-40 -20 20
-30 -20 20
-30 -30 10
-20 -30 10
-30 -20 10
-20 -20 10
-30 -30 20
-20 -30 20
-30 -20 20
-20 -20 20
-20 -30 10
-10 -30 10
-20 -20 10
-10 -20 10
-20 -30 20
-10 -30 20
-20 -20 20
-10 -20 20
-10 -30 10
0 -30 10
-10 -20 10
0 -20 10
-10 -30 20
0 -30 20
-10 -20 20
0 -20 20
0 -30 10
10 -30 10
0 -20 10
10 -20 10
0 -30 20
10 -30 20
0 -20 20
10 -20 20
10 -30 10
20 -30 10
10 -20 10
20 -20 10
10 -30 20
20 -30 20
10 -20 20
20 -20 20
20 -30 10
30 -30 10
20 -20 10
30 -20 10
20 -30 20
30 -30 20
20 -20 20
30 -20 20
30 -30 10
40 -30 10
30 -20 10
40 -20 10
30 -30 20
40 -30 20
30 -20 20
40 -20 20
40 -30 10
50 -30 10
40 -20 10
50 -20 10
40 -30 20
50 -30 20
40 -20 20
50 -20 20
-50 -20 10
-40 -20 10
-50 -10 10
-40 -10 10
-50 -20 20
-40 -20 20
-50 -10 20
-40 -10 20
-40 -20 10
-30 -20 10
-40 -10 10
-30 -10 10
-40 -20 20
-30 -20 20
-40 -10 20
-30 -10 20
-30 -20 10
-20 -20 10
-30 -10 10
-20 -10 10
-30 -20 20
-20 -20 20
-30 -10 20
-20 -10 20
-20 -20 10
-10 -20 10
-20 -10 10
-10 -10 10
-20 -20 20
-10 -20 20
-20 -10 20
-10 -10 20
-10 -20 10
0 -20 10
-10 -10 10
0 -10 10
-10 -20 20
0 -20 20
-10 -10 20
0 -10 20
0 -20 10
10 -20 10
0 -10 10
10 -10 10
0 -20 20
10 -20 20
0 -10 20
10 -10 20
10 -20 10
20 -20 10
10 -10 10
20 -10 10
10 -20 20
20 -20 20
10 -10 20
20 -10 20
20 -20 10
30 -20 10
[...]
  <PointData Scalars="scalars">
    <DataArray type="Float32" Name="u" format="ascii">
0.271793 0.294735 0.319535 0.355526 0.268238 0.290235 0.313683 0.347589 0.294735 0.309512 0.355526 0.382555 0.290235 0.304433 0.347589 0.372997 0.309512 0.314684 0.382555 0.392461 0.304433 0.309396 0.372997 0.382344 0.314684 0.309299 0.392461 0.382178 0.309396 0.304233 0.382344 0.372632 0.309299 0.29457 0.382178 0.35502 0.304233 0.290062 0.372632 0.347109 0.29457 0.273419 0.35502 0.319189 0.290062 0.269692 0.347109 0.313261 0.273419 0.249526 0.319189 0.282467 0.269692 0.246629 0.313261 0.278262 0.249526 0.225929 0.282467 0.24935 0.246629 0.223751 0.278262 0.246437 0.225929 0.204326 0.24935 0.221156 0.223751 0.202709 0.246437 0.219112 0.204326 0.184938 0.221156 0.197723 0.202709 0.183744 0.219112 0.196263 0.319535 0.355526 0.379394 0.443303 0.313683 0.347589 0.36943 0.428471 0.355526 0.382555 0.443303 0.497328 0.347589 0.372997 0.428471 0.477507 0.382555 0.392461 0.497328 0.519396 0.372997 0.382344 0.477507 0.496907 0.392461 0.382178 0.519396 0.496438 0.382344 0.372632 0.496907 0.47677 0.382178 0.35502 0.496438 0.441848 0.372632 0.347109 0.47677 0.427079 0.35502 0.319189 0.441848 0.377101 0.347109 0.313261 0.427079 0.367304 0.319189 0.282467 0.377101 0.319268 0.313261 0.278262 0.367304 0.313316 0.282467 0.24935 0.319268 0.273395 0.278262 0.246437 0.313316 0.269593 0.24935 0.221156 0.273395 0.237448 0.246437 0.219112 0.269593 0.234941 0.221156 0.197723 0.237448 0.209077 0.219112 0.196263 0.234941 0.207364 0.379394 0.443303 0.444783 0.571929 0.36943 0.428471 0.430353 0.539347 0.443303 0.497328 0.571929 0.705422 0.428471 0.477507 0.539347 0.655776 0.497328 0.519396 0.705422 0.755602 0.477507 0.496907 0.655776 0.704143 0.519396 0.496438 0.755602 0.70369 0.496907 0.47677 0.704143 0.653563 0.496438 0.441848 0.70369 0.569129 0.47677 0.427079 0.653563 0.536836 0.441848 0.377101 0.569129 0.441861 0.427079 0.367304 0.536836 0.427162 0.377101 0.319268 0.441861 0.355642 0.367304 0.313316 0.427162 0.347521 0.319268 0.273395 0.355642 0.295176 0.313316 0.269593 0.347521 0.29049 0.273395 0.237448 0.295176 0.251376 0.269593 0.234941 0.29049 0.248416 0.237448 0.209077 0.251376 0.218349 0.234941 0.207364 0.248416 0.216408 0.444783 0.571929 0.49631 0.705334 0.430353 0.539347 0.477972 0.656049 0.571929 0.705422 0.705334 1.16233 0.539347 0.655776 0.656049 0.949298 0.705422 0.755602 1.16233 1.5331 0.655776 0.704143 0.949298 1.16361 0.755602 0.70369 1.5331 1.14543 0.704143 0.653563 1.16361 0.944828 0.70369 0.569129 1.14543 0.698952 0.653563 0.536836 0.944828 0.652996 0.569129 0.441861 0.698952 0.498634 0.536836 0.427162 0.652996 0.477966 0.441861 0.355642 0.498634 0.383264 0.427162 0.347521 0.477966 0.373793 0.355642 0.295176 0.383264 0.311223 0.347521 0.29049 0.373793 0.305526 0.295176 0.251376 0.311223 0.261014 0.29049 0.248416 0.305526 0.257666 0.251376 0.218349 0.261014 0.224452 0.248416 0.216408 0.257666 0.222369 0.49631 0.705334 0.516822 0.757172 0.477972 0.656049 0.496255 0.705312 0.705334 1.16233 0.757172 1.529 0.656049 0.949298 0.705312 1.16308 0.311223 0.261014 0.318876 0.26432 0.305526 0.257666 0.311216 0.261008 0.261014 0.224452 0.26432 0.226626 0.257666 0.222369 0.261008 0.224444 0.516822 0.757172 0.496313 0.705332 0.496255 0.705312 0.477972 0.656054 0.757172 1.529 0.705332 1.16241 0.705312 1.16308 0.656054 0.949276 0.318876 0.26432 0.311223 0.261014 0.311216 0.261008 0.305526 0.257666 0.26432 0.226626 0.261014 0.224453 0.261008 0.224444 0.257666 0.222369 0.496313 0.705332 0.444783 0.571934 0.477972 0.656054 0.430354 0.539348 0.705332 1.16241 0.571934 0.705428 0.656054 0.949276 0.539348 0.655779 1.16241 1.5333 0.705428 0.755598 0.949276 1.1635 0.655779 0.704156 1.5333 1.14555 0.755598 0.703691 1.1635 0.944776 0.704156 0.65357 1.14555 0.698947 0.703691 0.569137 0.944776 0.653007 0.65357 0.536836 0.698947 0.498637 0.569137 0.441861 0.653007 0.477966 0.536836 0.427163 0.498637 0.383264 0.441861 0.355642 0.477966 0.373794 0.427163 0.347522 0.383264 0.311223 0.355642 0.295177 0.373794 0.305526 0.347522 0.29049 0.311223 0.261014 0.295177 0.251376 0.305526 0.257666 0.29049 0.248416 0.261014 0.224453 0.251376 0.218349 0.257666 0.222369 0.248416 0.216408 0.444783 0.571934 0.379396 0.443304 0.430354 0.539348 0.369431 0.428472 0.571934 0.705428 0.443304 0.49733 0.539348 0.655779 0.428472 0.477508 0.705428 0.755598 0.49733 0.5194 0.655779 0.704156 0.477508 0.496907 0.755598 0.703691 0.5194 0.49644 0.704156 0.65357 0.496907 0.47677 0.703691 0.569137 0.49644 0.441849 0.65357 0.536836 0.47677 0.42708 0.569137 0.441861 0.441849 0.377102 0.536836 0.427163 0.42708 0.367304 0.441861 0.355642 0.377102 0.319268 0.427163 0.347522 0.367304 0.313316 0.355642 0.295177 0.319268 0.273395 0.347522 0.29049 0.313316 0.269593 0.295177 0.251376 0.273395 0.237448 0.29049 0.248416 0.269593 0.234941 0.251376 0.218349 0.237448 0.209077 0.248416 0.216408 0.234941 0.207364 0.379396 0.443304 0.319535 0.355526 0.369431 0.428472 0.313684 0.34759 0.443304 0.49733 0.355526 0.382556 0.428472 0.477508 0.34759 0.372998 0.49733 0.5194 0.382556 0.392462 0.477508 0.496907 0.372998 0.382345 0.5194 0.49644 0.392462 0.382179 0.496907 0.47677 0.382345 0.372632 0.49644 0.441849 0.382179 0.355021 0.47677 0.42708 0.372632 0.34711 0.441849 0.377102 0.355021 0.31919 0.42708 0.367304 0.34711 0.313261 0.377102 0.319268 0.31919 0.282467 0.367304 0.313316 0.313261 0.278262 0.319268 0.273395 0.282467 0.24935 0.313316 0.269593 0.278262 0.246438 0.273395 0.237448 0.24935 0.221156 0.269593 0.234941 0.246438 0.219112 0.237448 0.209077 0.221156 0.197723 0.234941 0.207364 0.219112 0.196263 0.319535 0.355526 0.271794 0.294735 0.313684 0.34759 0.268238 0.290235 0.355526 0.382556 0.294735 0.309512 0.34759 0.372998 0.290235 0.304434 0.382556 0.392462 0.309512 0.314685 0.372998 0.382345 0.304434 0.309396 0.392462 0.382179 0.314685 0.3093 0.382345 0.372632 0.309396 0.304233 0.382179 0.355021 0.3093 0.294571 0.372632 0.34711 0.304233 0.290062 0.355021 0.31919 0.294571 0.27342 0.34711 0.313261 0.290062 0.269692 0.31919 0.282467 0.27342 0.249527 0.313261 0.278262 0.269692 0.246629 0.282467 0.24935 0.249527 0.22593 0.278262 0.246438 0.246629 0.223751 0.24935 0.221156 0.22593 0.204326 0.246438 0.219112 0.223751 0.202709 0.221156 0.197723 0.204326 0.184938 0.219112 0.196263 0.202709 0.183744 0.268238 0.290235 0.313683 0.347589 0.258195 0.277637 0.297568 0.326298 0.290235 0.304433 0.347589 0.372997 0.277637 0.290268 0.326298 0.347493 0.304433 0.309396 0.372997 0.382344 0.290268 0.294685 0.347493 0.355256 0.309396 0.304233 0.382344 0.372632 0.294685 0.290094 0.355256 0.347196 0.304233 0.290062 0.372632 0.347109 0.290094 0.277465 0.347196 0.325883 0.290062 0.269692 0.347109 0.313261 0.277465 0.259253 0.325883 0.297073 0.269692 0.246629 0.313261 0.278262 0.259253 0.238445 0.297073 0.266629 0.246629 0.223751 0.278262 0.246437 0.238445 0.217548 0.266629 0.238231 0.223751 0.202709 0.246437 0.219112 0.217548 0.19806 0.238231 0.213283 0.202709 0.183744 0.219112 0.196263 0.19806 0.180284 0.213283 0.192053 0.313683 0.347589 0.36943 0.428471 0.297568 0.326298 0.34352 0.390048 0.347589 0.372997 0.428471 0.477507 0.326298 0.347493 0.390048 0.427887 0.372997 0.382344 0.477507 0.496907 0.347493 0.355256 0.427887 0.442338 0.382344 0.372632 0.496907 0.47677 0.355256 0.347196 0.442338 0.427263 0.372632 0.347109 0.47677 0.427079 0.347196 0.325883 0.427263 0.38891 0.347109 0.313261 0.427079 0.367304 0.325883 0.297073 0.38891 0.341773 0.313261 0.278262 0.367304 0.313316 0.297073 0.266629 0.341773 0.297056 0.278262 0.246437 0.313316 0.269593 0.266629 0.238231 0.297056 0.259017 0.246437 0.219112 0.269593 0.234941 0.238231 0.213283 0.259017 0.227834 0.219112 0.196263 0.234941 0.207364 0.213283 0.192053 0.227834 0.202445 0.36943 0.428471 0.430353 0.539347 0.34352 0.390048 0.391838 0.466885 0.428471 0.477507 0.539347 0.655776 0.390048 0.427887 0.466885 0.538731 0.477507 0.496907 0.655776 0.704143 0.427887 0.442338 0.538731 0.57084 0.496907 0.47677 0.704143 0.653563 0.442338 0.427263 0.57084 0.537666 0.47677 0.427079 0.653563 0.536836 0.427263 0.38891 0.537666 0.465128 0.427079 0.367304 0.536836 0.427162 0.38891 0.341773 0.465128 0.388966 0.367304 0.313316 0.427162 0.347521 0.341773 0.297056 0.388966 0.326017 0.313316 0.269593 0.347521 0.29049 0.297056 0.259017 0.326017 0.27748 0.269593 0.234941 0.29049 0.248416 0.259017 0.227834 0.27748 0.240096 0.234941 0.207364 0.248416 0.216408 0.227834 0.202445 0.240096 0.210863 0.430353 0.539347 0.477972 0.656049 0.391838 0.466885 0.430289 0.539389 0.539347 0.655776 0.656049 0.949298 0.466885 0.538731 0.539389 0.655933 0.655776 0.704143 0.949298 1.16361 0.538731 0.57084 0.655933 0.704382 0.704143 0.653563 1.16361 0.944828 0.57084 0.537666 0.704382 0.653703 0.653563 0.536836 0.944828 0.652996 0.537666 0.465128 0.653703 0.536868 0.536836 0.427162 0.652996 0.477966 0.465128 0.388966 0.536868 0.427152 0.427162 0.347521 0.477966 0.373793 0.388966 0.326017 0.427152 0.347499 0.347521 0.29049 0.373793 0.305526 0.326017 0.27748 0.347499 0.29047 0.29049 0.248416 0.305526 0.257666 0.27748 0.240096 0.29047 0.2484 0.248416 0.216408 0.257666 0.222369 0.240096 0.210863 0.2484 0.216391 0.477972 0.656049 0.496255 0.705312 0.430289 0.539389 0.444666 0.572008 0.656049 0.949298 0.705312 1.16308 0.539389 0.655933 0.572008 0.70565 0.949298 1.16361 1.16308 1.53553 0.655933 0.704382 0.70565 0.755764 1.16361 0.944828 1.53553 1.14605 0.704382 0.653703 0.755764 0.703904 0.944828 0.652996 1.14605 0.698937 0.653703 0.536868 0.703904 0.569194 0.652996 0.477966 0.698937 0.498637 0.536868 0.427152 0.569194 0.441848 0.477966 0.373793 0.498637 0.383257 0.427152 0.347499 0.441848 0.355615 0.373793 0.305526 0.383257 0.311216 0.347499 0.29047 0.355615 0.29515 0.305526 0.257666 0.311216 0.261008 0.29047 0.2484 0.29515 0.251355 0.257666 0.222369 0.261008 0.224444 0.2484 0.216391 0.251355 0.218323 0.496255 0.705312 0.477972 0.656054 0.444666 0.572008 0.43029 0.539388 0.705312 1.16308 0.656054 0.949276 0.572008 0.70565 0.539388 0.655926 1.16308 1.53553 0.949276 1.1635 0.70565 0.755764 0.655926 0.704378 1.53553 1.14605 1.1635 0.944776 0.755764 0.703904 0.704378 0.653697 1.14605 0.698937 0.944776 0.653007 0.703904 0.569194 0.653697 0.536864 0.698937 0.498637 0.653007 0.477966 0.569194 0.441848 0.536864 0.427152 0.498637 0.383257 0.477966 0.373794 0.441848 0.355615 0.427152 0.347499 0.383257 0.311216 0.373794 0.305526 0.355615 0.29515 0.347499 0.29047 0.311216 0.261008 0.305526 0.257666 0.29515 0.251355 0.29047 0.248401 0.261008 0.224444 0.257666 0.222369 0.251355 0.218323 0.248401 0.216391 0.477972 0.656054 0.430354 0.539348 0.43029 0.539388 0.391838 0.466884 0.656054 0.949276 0.539348 0.655779 0.539388 0.655926 0.466884 0.538727 0.949276 1.1635 0.655779 0.704156 0.655926 0.704378 0.538727 0.570831 1.1635 0.944776 0.704156 0.65357 0.704378 0.653697 0.570831 0.53766 0.944776 0.653007 0.65357 0.536836 0.653697 0.536864 0.53766 0.465127 0.653007 0.477966 0.536836 0.427163 0.536864 0.427152 0.465127 0.388966 0.477966 0.373794 0.427163 0.347522 0.427152 0.347499 0.388966 0.326017 0.373794 0.305526 0.347522 0.29049 0.347499 0.29047 0.326017 0.27748 0.305526 0.257666 0.29049 0.248416 0.29047 0.248401 0.27748 0.240096 0.257666 0.222369 0.248416 0.216408 0.248401 0.216391 0.240096 0.210863 0.430354 0.539348 0.369431 0.428472 0.391838 0.466884 0.34352 0.390048 0.539348 0.655779 0.428472 0.477508 0.466884 0.538727 0.390048 0.427887 0.655779 0.704156 0.477508 0.496907 0.538727 0.570831 0.427887 0.442338 0.704156 0.65357 0.496907 0.47677 0.570831 0.53766 0.442338 0.427263 0.65357 0.536836 0.47677 0.42708 0.53766 0.465127 0.427263 0.388909 0.536836 0.427163 0.42708 0.367304 0.465127 0.388966 0.388909 0.341773 0.427163 0.347522 0.367304 0.313316 0.388966 0.326017 0.341773 0.297056 0.347522 0.29049 0.313316 0.269593 0.326017 0.27748 0.297056 0.259017 0.29049 0.248416 0.269593 0.234941 0.27748 0.240096 0.259017 0.227834 0.248416 0.216408 0.234941 0.207364 0.240096 0.210863 0.227834 0.202445 0.369431 0.428472 0.313684 0.34759 0.34352 0.390048 0.297568 0.326298 0.428472 0.477508 0.34759 0.372998 0.390048 0.427887 0.326298 0.347493 0.477508 0.496907 0.372998 0.382345 0.427887 0.442338 0.347493 0.355256 0.496907 0.47677 0.382345 0.372632 0.442338 0.427263 0.355256 0.347196 0.47677 0.42708 0.372632 0.34711 0.427263 0.388909 0.347196 0.325883 0.42708 0.367304 0.34711 0.313261 0.388909 0.341773 0.325883 0.297073 0.367304 0.313316 0.313261 0.278262 0.341773 0.297056 0.297073 0.266629 0.313316 0.269593 0.278262 0.246438 0.297056 0.259017 0.266629 0.238231 0.269593 0.234941 0.246438 0.219112 0.259017 0.227834 0.238231 0.213283 0.234941 0.207364 0.219112 0.196263 0.227834 0.202445 0.213283 0.192053 0.313684 0.34759 0.268238 0.290235 0.297568 0.326298 0.258195 0.277637 0.34759 0.372998 0.290235 0.304434 0.326298 0.347493 0.277637 0.290269 0.372998 0.382345 0.304434 0.309396 0.347493 0.355256 0.290269 0.294685 0.382345 0.372632 0.309396 0.304233 0.355256 0.347196 0.294685 0.290095 0.372632 0.34711 0.304233 0.290062 0.347196 0.325883 0.290095 0.277465 0.34711 0.313261 0.290062 0.269692 0.325883 0.297073 0.277465 0.259253 0.313261 0.278262 0.269692 0.246629 0.297073 0.266629 0.259253 0.238445 0.278262 0.246438 0.246629 0.223751 0.266629 0.238231 0.238445 0.217548 0.246438 0.219112 0.223751 0.202709 0.238231 0.213283 0.217548 0.19806 0.219112 0.196263 0.202709 0.183744 0.213283 0.192053 0.19806 0.180284 0.258195 0.277637 0.297568 0.326298 0.2433 0.259374 0.274979 0.297367 0.277637 0.290268 0.326298 0.347493 0.259374 0.269826 0.297367 0.313531 0.290268 0.294685 0.347493 0.355256 0.269826 0.273488 0.313531 0.319351 0.294685 0.290094 0.355256 0.347196 0.273488 0.269701 0.319351 0.31332 0.290094 0.277465 0.347196 0.325883 0.269701 0.25924 0.31332 0.297075 0.277465 0.259253 0.325883 0.297073 0.25924 0.244001 0.297075 0.274566 0.259253 0.238445 0.297073 0.266629 0.244001 0.226317 0.274566 0.249946 0.238445 0.217548 0.266629 0.238231 0.226317 0.208196 0.249946 0.226109 0.217548 0.19806 0.238231 0.213283 0.208196 0.190931 0.226109 0.204466 0.19806 0.180284 0.213283 0.192053 0.190931 0.174892 0.204466 0.185558 0.297568 0.326298 0.34352 0.390048 0.274979 0.297367 0.30959 0.342539 0.326298 0.347493 0.390048 0.427887 0.297367 0.313531 0.342539 0.367837 0.347493 0.355256 0.427887 0.442338 0.313531 0.319351 0.367837 0.377441 0.355256 0.347196 0.442338 0.427263 0.319351 0.31332 0.377441 0.367449 0.347196 0.325883 0.427263 0.38891 0.31332 0.297075 0.367449 0.341787 0.325883 0.297073 0.38891 0.341773 0.297075 0.274566 0.341787 0.308451 0.297073 0.266629 0.341773 0.297056 0.274566 0.249946 0.308451 0.274491 0.266629 0.238231 0.297056 0.259017 0.249946 0.226109 0.274491 0.243698 0.238231 0.213283 0.259017 0.227834 0.226109 0.204466 0.243698 0.217217 0.213283 0.192053 0.227834 0.202445 0.204466 0.185558 0.217217 0.194913 0.34352 0.390048 0.391838 0.466885 0.30959 0.342539 0.343517 0.390075 0.390048 0.427887 0.466885 0.538731 0.342539 0.367837 0.390075 0.42794 0.427887 0.442338 0.538731 0.57084 0.367837 0.377441 0.42794 0.442393 0.442338 0.427263 0.57084 0.537666 0.377441 0.367449 0.442393 0.427294 0.427263 0.38891 0.537666 0.465128 0.367449 0.341787 0.427294 0.388898 0.38891 0.341773 0.465128 0.388966 0.341787 0.308451 0.388898 0.341727 0.341773 0.297056 0.388966 0.326017 0.308451 0.274491 0.341727 0.296999 0.297056 0.259017 0.326017 0.27748 0.274491 0.243698 0.296999 0.258976 0.259017 0.227834 0.27748 0.240096 0.243698 0.217217 0.258976 0.227815 0.227834 0.202445 0.240096 0.210863 0.217217 0.194913 0.227815 0.202435 0.391838 0.466885 0.430289 0.539389 0.343517 0.390075 0.369412 0.428547 0.466885 0.538731 0.539389 0.655933 0.390075 0.42794 0.428547 0.477638 0.538731 0.57084 0.655933 0.704382 0.42794 0.442393 0.477638 0.497038 0.57084 0.537666 0.704382 0.653703 0.442393 0.427294 0.497038 0.476867 0.537666 0.465128 0.653703 0.536868 0.427294 0.388898 0.476867 0.427099 0.465128 0.388966 0.536868 0.427152 0.388898 0.341727 0.427099 0.367254 0.388966 0.326017 0.427152 0.347499 0.341727 0.296999 0.367254 0.31324 0.326017 0.27748 0.347499 0.29047 0.296999 0.258976 0.31324 0.269534 0.27748 0.240096 0.29047 0.2484 0.258976 0.227815 0.269534 0.234909 0.240096 0.210863 0.2484 0.216391 0.227815 0.202435 0.234909 0.207339 0.430289 0.539389 0.444666 0.572008 0.369412 0.428547 0.379362 0.443399 0.539389 0.655933 0.572008 0.70565 0.428547 0.477638 0.443399 0.497494 0.655933 0.704382 0.70565 0.755764 0.477638 0.497038 0.497494 0.519586 0.704382 0.653703 0.755764 0.703904 0.497038 0.476867 0.519586 0.496565 0.653703 0.536868 0.703904 0.569194 0.476867 0.427099 0.496565 0.441887 0.536868 0.427152 0.569194 0.441848 0.427099 0.367254 0.441887 0.377057 0.427152 0.347499 0.441848 0.355615 0.367254 0.31324 0.377057 0.319189 0.347499 0.29047 0.355615 0.29515 0.31324 0.269534 0.319189 0.273331 0.29047 0.2484 0.29515 0.251355 0.269534 0.234909 0.273331 0.237412 0.2484 0.216391 0.251355 0.218323 0.234909 0.207339 0.237412 0.209046 0.444666 0.572008 0.43029 0.539388 0.379362 0.443399 0.369411 0.428546 0.572008 0.70565 0.539388 0.655926 0.443399 0.497494 0.428546 0.477637 0.70565 0.755764 0.655926 0.704378 0.497494 0.519586 0.477637 0.497036 0.755764 0.703904 0.704378 0.653697 0.519586 0.496565 0.497036 0.476865 0.703904 0.569194 0.653697 0.536864 0.496565 0.441887 0.476865 0.427098 0.569194 0.441848 0.536864 0.427152 0.441887 0.377057 0.427098 0.367254 0.441848 0.355615 0.427152 0.347499 0.377057 0.319189 0.367254 0.31324 0.355615 0.29515 0.347499 0.29047 0.319189 0.273331 0.31324 0.269534 0.29515 0.251355 0.29047 0.248401 0.273331 0.237412 0.269534 0.234909 0.251355 0.218323 0.248401 0.216391 0.237412 0.209046 0.234909 0.207339 0.43029 0.539388 0.391838 0.466884 0.369411 0.428546 0.343517 0.390075 0.539388 0.655926 0.466884 0.538727 0.428546 0.477637 0.390075 0.427938 0.655926 0.704378 0.538727 0.570831 0.477637 0.497036 0.427938 0.442391 0.704378 0.653697 0.570831 0.53766 0.497036 0.476865 0.442391 0.427292 0.653697 0.536864 0.53766 0.465127 0.476865 0.427098 0.427292 0.388897 0.536864 0.427152 0.465127 0.388966 0.427098 0.367254 0.388897 0.341726 0.427152 0.347499 0.388966 0.326017 0.367254 0.31324 0.341726 0.296999 0.347499 0.29047 0.326017 0.27748 0.31324 0.269534 0.296999 0.258977 0.29047 0.248401 0.27748 0.240096 0.269534 0.234909 0.258977 0.227815 0.248401 0.216391 0.240096 0.210863 0.234909 0.207339 0.227815 0.202435 0.391838 0.466884 0.34352 0.390048 0.343517 0.390075 0.30959 0.342539 0.466884 0.538727 0.390048 0.427887 0.390075 0.427938 0.342539 0.367836 0.538727 0.570831 0.427887 0.442338 0.427938 0.442391 0.367836 0.377439 0.570831 0.53766 0.442338 0.427263 0.442391 0.427292 0.377439 0.367448 0.53766 0.465127 0.427263 0.388909 0.427292 0.388897 0.367448 0.341786 0.465127 0.388966 0.388909 0.341773 0.388897 0.341726 0.341786 0.308451 0.388966 0.326017 0.341773 0.297056 0.341726 0.296999 0.308451 0.274491 0.326017 0.27748 0.297056 0.259017 0.296999 0.258977 0.274491 0.243698 0.27748 0.240096 0.259017 0.227834 0.258977 0.227815 0.243698 0.217217 0.240096 0.210863 0.227834 0.202445 0.227815 0.202435 0.217217 0.194913 0.34352 0.390048 0.297568 0.326298 0.30959 0.342539 0.274979 0.297367 0.390048 0.427887 0.326298 0.347493 0.342539 0.367836 0.297367 0.313531 0.427887 0.442338 0.347493 0.355256 0.367836 0.377439 0.313531 0.319351 0.442338 0.427263 0.355256 0.347196 0.377439 0.367448 0.319351 0.31332 0.427263 0.388909 0.347196 0.325883 0.367448 0.341786 0.31332 0.297074 0.388909 0.341773 0.325883 0.297073 0.341786 0.308451 0.297074 0.274566 0.341773 0.297056 0.297073 0.266629 0.308451 0.274491 0.274566 0.249946 0.297056 0.259017 0.266629 0.238231 0.274491 0.243698 0.249946 0.226109 0.259017 0.227834 0.238231 0.213283 0.243698 0.217217 0.226109 0.204466 0.227834 0.202445 0.213283 0.192053 0.217217 0.194913 0.204466 0.185558 0.297568 0.326298 0.258195 0.277637 0.274979 0.297367 0.2433 0.259374 0.326298 0.347493 0.277637 0.290269 0.297367 0.313531 0.259374 0.269826 0.347493 0.355256 0.290269 0.294685 0.313531 0.319351 0.269826 