<?xml version="1.0" ?> 
<!-- 
# vtk DataFile Version 3.0
#This file was generated by the deal.II library on 16:50:49 at 2019/11/27
-->
<VTKFile type="UnstructuredGrid" version="0.1" byte_order="LittleEndian">
<UnstructuredGrid>
<Piece NumberOfPoints="39920" NumberOfCells="4990" >
  <Points>
    <DataArray type="Float32" NumberOfComponents="3" format="ascii">
-50 -50 0
-40 -50 0
-50 -40 0
-40 -40 0
-50 -50 10
-40 -50 10
-50 -40 10
-40 -40 10
-40 -50 0
-30 -50 0
-40 -40 0
-30 -40 0
-40 -50 10
-30 -50 10
-40 -40 10
-30 -40 10
-30 -50 0
-20 -50 0
-30 -40 0
-20 -40 0
-30 -50 10
-20 -50 10
-30 -40 10
-20 -40 10
-20 -50 0
-10 -50 0
-20 -40 0
-10 -40 0
-20 -50 10
-10 -50 10
-20 -40 10
-10 -40 10
-10 -50 0
0 -50 0
-10 -40 0
0 -40 0
-10 -50 10
0 -50 10
-10 -40 10
0 -40 10
0 -50 0
10 -50 0
0 -40 0
10 -40 0
0 -50 10
10 -50 10
0 -40 10
10 -40 10
10 -50 0
20 -50 0
10 -40 0
20 -40 0
10 -50 10
20 -50 10
10 -40 10
20 -40 10
20 -50 0
30 -50 0
20 -40 0
30 -40 0
20 -50 10
30 -50 10
20 -40 10
30 -40 10
30 -50 0
40 -50 0
30 -40 0
40 -40 0
30 -50 10
40 -50 10
30 -40 10
40 -40 10
40 -50 0
50 -50 0
40 -40 0
50 -40 0
40 -50 10
50 -50 10
40 -40 10
50 -40 10
-50 -40 0
-40 -40 0
-50 -30 0
-40 -30 0
-50 -40 10
-40 -40 10
-50 -30 10
-40 -30 10
-40 -40 0
-30 -40 0
-40 -30 0
-30 -30 0
-40 -40 10
-30 -40 10
-40 -30 10
-30 -30 10
-30 -40 0
-20 -40 0
-30 -30 0
-20 -30 0
-30 -40 10
-20 -40 10
-30 -30 10
-20 -30 10
-20 -40 0
-10 -40 0
-20 -30 0
-10 -30 0
-20 -40 10
-10 -40 10
-20 -30 10
-10 -30 10
-10 -40 0
0 -40 0
-10 -30 0
0 -30 0
-10 -40 10
0 -40 10
-10 -30 10
0 -30 10
0 -40 0
10 -40 0
0 -30 0
10 -30 0
0 -40 10
10 -40 10
0 -30 10
10 -30 10
10 -40 0
20 -40 0
10 -30 0
20 -30 0
10 -40 10
20 -40 10
10 -30 10
20 -30 10
20 -40 0
30 -40 0
20 -30 0
30 -30 0
20 -40 10
30 -40 10
20 -30 10
30 -30 10
30 -40 0
40 -40 0
30 -30 0
40 -30 0
30 -40 10
40 -40 10
30 -30 10
40 -30 10
40 -40 0
50 -40 0
40 -30 0
50 -30 0
40 -40 10
50 -40 10
40 -30 10
50 -30 10
-50 -30 0
-40 -30 0
-50 -20 0
-40 -20 0
-50 -30 10
-40 -30 10
-50 -20 10
-40 -20 10
0 -30 0
10 -30 0
0 -20 0
10 -20 0
0 -30 10
10 -30 10
0 -20 10
10 -20 10
10 -30 0
20 -30 0
10 -20 0
20 -20 0
10 -30 10
20 -30 10
10 -20 10
20 -20 10
20 -30 0
30 -30 0
20 -20 0
30 -20 0
20 -30 10
30 -30 10
20 -20 10
30 -20 10
30 -30 0
40 -30 0
30 -20 0
40 -20 0
30 -30 10
40 -30 10
30 -20 10
40 -20 10
40 -30 0
50 -30 0
40 -20 0
50 -20 0
40 -30 10
50 -30 10
40 -20 10
50 -20 10
10 -20 0
20 -20 0
10 -10 0
20 -10 0
10 -20 10
20 -20 10
10 -10 10
20 -10 10
20 -20 0
30 -20 0
20 -10 0
30 -10 0
20 -20 10
30 -20 10
20 -10 10
30 -10 10
30 -20 0
40 -20 0
30 -10 0
40 -10 0
30 -20 10
40 -20 10
30 -10 10
40 -10 10
40 -20 0
50 -20 0
40 -10 0
50 -10 0
40 -20 10
50 -20 10
40 -10 10
50 -10 10
30 -10 0
40 -10 0
30 0 0
40 0 0
30 -10 10
40 -10 10
30 0 10
40 0 10
40 -10 0
50 -10 0
40 0 0
50 0 0
40 -10 10
50 -10 10
40 0 10
50 0 10
30 0 0
40 0 0
30 10 0
40 10 0
30 0 10
40 0 10
30 10 10
40 10 10
40 0 0
50 0 0
40 10 0
50 10 0
40 0 10
50 0 10
40 10 10
50 10 10
10 10 0
20 10 0
10 20 0
20 20 0
10 10 10
20 10 10
10 20 10
20 20 10
20 10 0
30 10 0
20 20 0
30 20 0
20 10 10
30 10 10
20 20 10
30 20 10
30 10 0
40 10 0
30 20 0
40 20 0
30 10 10
40 10 10
30 20 10
40 20 10
40 10 0
50 10 0
40 20 0
50 20 0
40 10 10
50 10 10
40 20 10
50 20 10
-50 20 0
-40 20 0
-50 30 0
-40 30 0
-50 20 10
-40 20 10
-50 30 10
-40 30 10
0 20 0
10 20 0
0 30 0
10 30 0
0 20 10
10 20 10
0 30 10
10 30 10
10 20 0
20 20 0
10 30 0
20 30 0
10 20 10
20 20 10
10 30 10
20 30 10
20 20 0
30 20 0
20 30 0
30 30 0
20 20 10
30 20 10
20 30 10
30 30 10
30 20 0
40 20 0
30 30 0
40 30 0
30 20 10
40 20 10
30 30 10
40 30 10
40 20 0
50 20 0
40 30 0
50 30 0
40 20 10
50 20 10
40 30 10
50 30 10
-50 30 0
-40 30 0
-50 40 0
-40 40 0
-50 30 10
-40 30 10
-50 40 10
-40 40 10
-40 30 0
-30 30 0
-40 40 0
-30 40 0
-40 30 10
-30 30 10
-40 40 10
-30 40 10
-30 30 0
-20 30 0
-30 40 0
-20 40 0
-30 30 10
-20 30 10
-30 40 10
-20 40 10
-20 30 0
-10 30 0
-20 40 0
-10 40 0
-20 30 10
-10 30 10
-20 40 10
-10 40 10
-10 30 0
0 30 0
-10 40 0
0 40 0
-10 30 10
0 30 10
-10 40 10
0 40 10
0 30 0
10 30 0
0 40 0
10 40 0
0 30 10
10 30 10
0 40 10
10 40 10
10 30 0
20 30 0
10 40 0
20 40 0
10 30 10
20 30 10
10 40 10
20 40 10
20 30 0
30 30 0
20 40 0
30 40 0
20 30 10
30 30 10
20 40 10
30 40 10
30 30 0
40 30 0
30 40 0
40 40 0
30 30 10
40 30 10
30 40 10
40 40 10
40 30 0
50 30 0
40 40 0
50 40 0
40 30 10
50 30 10
40 40 10
50 40 10
-50 40 0
-40 40 0
-50 50 0
-40 50 0
-50 40 10
-40 40 10
-50 50 10
-40 50 10
-40 40 0
-30 40 0
-40 50 0
-30 50 0
-40 40 10
-30 40 10
-40 50 10
-30 50 10
-30 40 0
-20 40 0
-30 50 0
-20 50 0
-30 40 10
-20 40 10
-30 50 10
-20 50 10
-20 40 0
-10 40 0
-20 50 0
-10 50 0
-20 40 10
-10 40 10
-20 50 10
-10 50 10
-10 40 0
0 40 0
-10 50 0
0 50 0
-10 40 10
0 40 10
-10 50 10
0 50 10
0 40 0
10 40 0
0 50 0
10 50 0
0 40 10
10 40 10
0 50 10
10 50 10
10 40 0
20 40 0
10 50 0
20 50 0
10 40 10
20 40 10
10 50 10
20 50 10
20 40 0
30 40 0
20 50 0
30 50 0
20 40 10
30 40 10
20 50 10
30 50 10
30 40 0
40 40 0
30 50 0
40 50 0
30 40 10
40 40 10
30 50 10
40 50 10
40 40 0
50 40 0
40 50 0
50 50 0
40 40 10
50 40 10
40 50 10
50 50 10
-50 -50 10
-40 -50 10
-50 -40 10
-40 -40 10
-50 -50 20
-40 -50 20
-50 -40 20
-40 -40 20
-40 -50 10
-30 -50 10
-40 -40 10
-30 -40 10
-40 -50 20
-30 -50 20
-40 -40 20
-30 -40 20
-30 -50 10
-20 -50 10
-30 -40 10
-20 -40 10
-30 -50 20
-20 -50 20
-30 -40 20
-20 -40 20
-20 -50 10
-10 -50 10
-20 -40 10
-10 -40 10
-20 -50 20
-10 -50 20
-20 -40 20
-10 -40 20
-10 -50 10
0 -50 10
-10 -40 10
0 -40 10
-10 -50 20
0 -50 20
-10 -40 20
0 -40 20
0 -50 10
10 -50 10
0 -40 10
10 -40 10
0 -50 20
10 -50 20
0 -40 20
10 -40 20
10 -50 10
20 -50 10
10 -40 10
20 -40 10
10 -50 20
20 -50 20
10 -40 20
20 -40 20
20 -50 10
30 -50 10
20 -40 10
30 -40 10
20 -50 20
30 -50 20
20 -40 20
30 -40 20
30 -50 10
40 -50 10
30 -40 10
40 -40 10
30 -50 20
40 -50 20
30 -40 20
40 -40 20
40 -50 10
50 -50 10
40 -40 10
50 -40 10
40 -50 20
50 -50 20
40 -40 20
50 -40 20
-50 -40 10
-40 -40 10
-50 -30 10
-40 -30 10
-50 -40 20
-40 -40 20
-50 -30 20
-40 -30 20
-40 -40 10
-30 -40 10
-40 -30 10
-30 -30 10
-40 -40 20
-30 -40 20
-40 -30 20
-30 -30 20
-30 -40 10
-20 -40 10
-30 -30 10
-20 -30 10
-30 -40 20
-20 -40 20
-30 -30 20
-20 -30 20
-20 -40 10
-10 -40 10
-20 -30 10
-10 -30 10
-20 -40 20
-10 -40 20
-20 -30 20
-10 -30 20
-10 -40 10
0 -40 10
-10 -30 10
0 -30 10
-10 -40 20
0 -40 20
-10 -30 20
0 -30 20
0 -40 10
10 -40 10
0 -30 10
10 -30 10
0 -40 20
10 -40 20
0 -30 20
10 -30 20
10 -40 10
20 -40 10
10 -30 10
20 -30 10
10 -40 20
20 -40 20
10 -30 20
20 -30 20
20 -40 10
30 -40 10
20 -30 10
30 -30 10
20 -40 20
30 -40 20
20 -30 20
30 -30 20
30 -40 10
40 -40 10
30 -30 10
40 -30 10
30 -40 20
40 -40 20
30 -30 20
40 -30 20
40 -40 10
50 -40 10
40 -30 10
50 -30 10
40 -40 20
50 -40 20
40 -30 20
50 -30 20
-50 -30 10
-40 -30 10
-50 -20 10
-40 -20 10
-50 -30 20
-40 -30 20
-50 -20 20
-40 -20 20
-40 -30 10
-30 -30 10
-40 -20 10
-30 -20 10
-40 -30 20
-30 -30 20
-40 -20 20
-30 -20 20
0 -30 10
10 -30 10
0 -20 10
10 -20 10
0 -30 20
10 -30 20
0 -20 20
10 -20 20
10 -30 10
20 -30 10
10 -20 10
20 -20 10
10 -30 20
20 -30 20
10 -20 20
20 -20 20
20 -30 10
30 -30 10
20 -20 10
30 -20 10
20 -30 20
30 -30 20
20 -20 20
30 -20 20
30 -30 10
40 -30 10
30 -20 10
40 -20 10
30 -30 20
40 -30 20
30 -20 20
40 -20 20
40 -30 10
50 -30 10
40 -20 10
50 -20 10
40 -30 20
50 -30 20
40 -20 20
50 -20 20
0 -20 10
10 -20 10
0 -10 10
10 -10 10
0 -20 20
10 -20 20
0 -10 20
10 -10 20
10 -20 10
20 -20 10
10 -10 10
20 -10 10
10 -20 20
20 -20 20
10 -10 20
20 -10 20
20 -20 10
30 -20 10
20 -10 10
30 -10 10
20 -20 20
30 -20 20
20 -10 20
30 -10 20
30 -20 10
40 -20 10
30 -10 10
40 -10 10
30 -20 20
40 -20 20
30 -10 20
40 -10 20
40 -20 10
50 -20 10
40 -10 10
50 -10 10
40 -20 20
50 -20 20
40 -10 20
50 -10 20
10 -10 10
20 -10 10
10 0 10
20 0 10
10 -10 20
20 -10 20
10 0 20
20 0 20
20 -10 10
30 -10 10
20 0 10
30 0 10
20 -10 20
30 -10 20
20 0 20
30 0 20
30 -10 10
40 -10 10
30 0 10
40 0 10
30 -10 20
40 -10 20
30 0 20
40 0 20
40 -10 10
50 -10 10
40 0 10
50 0 10
40 -10 20
50 -10 20
40 0 20
50 0 20
10 0 10
20 0 10
10 10 10
20 10 10
10 0 20
20 0 20
10 10 20
20 10 20
20 0 10
30 0 10
20 10 10
30 10 10
20 0 20
30 0 20
20 10 20
30 10 20
30 0 10
40 0 10
30 10 10
40 10 10
30 0 20
40 0 20
30 10 20
40 10 20
40 0 10
50 0 10
40 10 10
50 10 10
40 0 20
50 0 20
40 10 20
50 10 20
0 10 10
10 10 10
0 20 10
10 20 10
0 10 20
10 10 20
0 20 20
10 20 20
10 10 10
20 10 10
10 20 10
20 20 10
10 10 20
20 10 20
10 20 20
20 20 20
20 10 10
30 10 10
20 20 10
30 20 10
20 10 20
30 10 20
20 20 20
30 20 20
30 10 10
40 10 10
30 20 10
40 20 10
30 10 20
40 10 20
30 20 20
40 20 20
40 10 10
50 10 10
40 20 10
50 20 10
40 10 20
50 10 20
40 20 20
50 20 20
-50 20 10
-40 20 10
-50 30 10
-40 30 10
-50 20 20
-40 20 20
-50 30 20
-40 30 20
0 20 10
10 20 10
0 30 10
10 30 10
0 20 20
10 20 20
0 30 20
10 30 20
10 20 10
20 20 10
10 30 10
20 30 10
10 20 20
20 20 20
10 30 20
20 30 20
20 20 10
30 20 10
20 30 10
30 30 10
20 20 20
30 20 20
20 30 20
30 30 20
30 20 10
40 20 10
30 30 10
40 30 10
30 20 20
40 20 20
30 30 20
40 30 20
40 20 10
50 20 10
40 30 10
50 30 10
40 20 20
50 20 20
40 30 20
50 30 20
-50 30 10
-40 30 10
-50 40 10
-40 40 10
-50 30 20
-40 30 20
-50 40 20
-40 40 20
-40 30 10
-30 30 10
-40 40 10
-30 40 10
-40 30 20
-30 30 20
-40 40 20
-30 40 20
-30 30 10
-20 30 10
-30 40 10
-20 40 10
-30 30 20
-20 30 20
-30 40 20
-20 40 20
-20 30 10
-10 30 10
-20 40 10
-10 40 10
-20 30 20
-10 30 20
-20 40 20
-10 40 20
-10 30 10
0 30 10
-10 40 10
0 40 10
-10 30 20
0 30 20
-10 40 20
0 40 20
0 30 10
10 30 10
0 40 10
10 40 10
0 30 20
10 30 20
0 40 20
10 40 20
10 30 10
20 30 10
10 40 10
20 40 10
10 30 20
20 30 20
10 40 20
20 40 20
20 30 10
30 30 10
20 40 10
30 40 10
20 30 20
30 30 20
20 40 20
30 40 20
30 30 10
40 30 10
30 40 10
40 40 10
30 30 20
40 30 20
30 40 20
40 40 20
40 30 10
50 30 10
40 40 10
50 40 10
40 30 20
50 30 20
40 40 20
50 40 20
-50 40 10
-40 40 10
-50 50 10
-40 50 10
-50 40 20
-40 40 20
-50 50 20
-40 50 20
-40 40 10
-30 40 10
-40 50 10
-30 50 10
-40 40 20
-30 40 20
-40 50 20
-30 50 20
-30 40 10
-20 40 10
-30 50 10
-20 50 10
-30 40 20
[...]
  <PointData Scalars="scalars">
    <DataArray type="Float32" Name="u" format="ascii">
0.270884 0.295401 0.31803 0.355746 0.267378 0.289431 0.312145 0.346954 0.295401 0.312524 0.355746 0.385951 0.289431 0.306435 0.346954 0.375033 0.312524 0.318821 0.385951 0.397813 0.306435 0.312538 0.375033 0.38595 0.318821 0.312522 0.397813 0.385968 0.312538 0.306523 0.38595 0.375116 0.312522 0.294988 0.385968 0.356318 0.306523 0.289991 0.375116 0.347678 0.294988 0.273112 0.356318 0.318339 0.289991 0.26922 0.347678 0.312248 0.273112 0.248832 0.318339 0.281621 0.26922 0.245897 0.312248 0.277343 0.248832 0.225349 0.281621 0.248735 0.245897 0.223151 0.277343 0.245813 0.225349 0.203895 0.248735 0.220766 0.223151 0.202267 0.245813 0.218695 0.203895 0.184591 0.220766 0.197413 0.202267 0.183385 0.218695 0.195934 0.31803 0.355746 0.375394 0.441742 0.312145 0.346954 0.365074 0.425349 0.355746 0.385951 0.441742 0.503027 0.346954 0.375033 0.425349 0.479779 0.385951 0.397813 0.503027 0.530167 0.375033 0.38595 0.479779 0.503099 0.397813 0.385968 0.530167 0.503067 0.38595 0.375116 0.503099 0.481114 0.385968 0.356318 0.503067 0.441364 0.375116 0.347678 0.481114 0.425043 0.356318 0.318339 0.441364 0.375387 0.347678 0.312248 0.425043 0.365203 0.318339 0.281621 0.375387 0.318147 0.312248 0.277343 0.365203 0.31218 0.281621 0.248735 0.318147 0.273148 0.277343 0.245813 0.31218 0.269098 0.248735 0.220766 0.273148 0.237269 0.245813 0.218695 0.269098 0.234702 0.220766 0.197413 0.237269 0.208926 0.218695 0.195934 0.234702 0.207177 0.375394 0.441742 0.443909 0.567095 0.365074 0.425349 0.424652 0.532544 0.441364 0.375387 0.566154 0.441394 0.425043 0.365203 0.53145 0.425075 0.375387 0.318147 0.441394 0.355622 0.365203 0.31218 0.425075 0.346799 0.318147 0.273148 0.355622 0.29599 0.31218 0.269098 0.346799 0.290483 0.273148 0.237269 0.29599 0.251551 0.269098 0.234702 0.290483 0.248494 0.237269 0.208926 0.251551 0.218545 0.234702 0.207177 0.248494 0.216462 0.441394 0.355622 0.502636 0.383689 0.425075 0.346799 0.480097 0.373408 0.355622 0.29599 0.383689 0.312079 0.346799 0.290483 0.373408 0.306 0.29599 0.251551 0.312079 0.262429 0.290483 0.248494 0.306 0.257891 0.251551 0.218545 0.262429 0.224872 0.248494 0.216462 0.257891 0.222859 0.312079 0.262429 0.320223 0.265436 0.306 0.257891 0.312079 0.262428 0.262429 0.224872 0.265436 0.22745 0.257891 0.222859 0.262428 0.224868 0.320223 0.265436 0.31208 0.26243 0.312079 0.262428 0.306001 0.257892 0.265436 0.22745 0.26243 0.224872 0.262428 0.224868 0.257892 0.22286 0.502615 0.383687 0.441395 0.355623 0.480083 0.373408 0.425078 0.346801 0.383687 0.31208 0.355623 0.295992 0.373408 0.306001 0.346801 0.290485 0.31208 0.26243 0.295992 0.251553 0.306001 0.257892 0.290485 0.248495 0.26243 0.224872 0.251553 0.218546 0.257892 0.22286 0.248495 0.216463 0.444095 0.567016 0.375541 0.441876 0.425402 0.530636 0.365209 0.425776 0.566162 0.441395 0.441382 0.375395 0.531459 0.425078 0.425061 0.365212 0.441395 0.355623 0.375395 0.318151 0.425078 0.346801 0.365212 0.312185 0.355623 0.295992 0.318151 0.273151 0.346801 0.290485 0.312185 0.269102 0.295992 0.251553 0.273151 0.237272 0.290485 0.248495 0.269102 0.234704 0.251553 0.218546 0.237272 0.208928 0.248495 0.216463 0.234704 0.20718 0.375541 0.441876 0.318023 0.355722 0.365209 0.425776 0.312092 0.346906 0.441876 0.50331 0.355722 0.385962 0.425776 0.481246 0.346906 0.375064 0.50331 0.530268 0.385962 0.397833 0.481246 0.503285 0.375064 0.38597 0.530268 0.503113 0.397833 0.38599 0.503285 0.481157 0.38597 0.375137 0.503113 0.441382 0.38599 0.356333 0.481157 0.425061 0.375137 0.347693 0.441382 0.375395 0.356333 0.318349 0.425061 0.365212 0.347693 0.312258 0.375395 0.318151 0.318349 0.281628 0.365212 0.312185 0.312258 0.27735 0.318151 0.273151 0.281628 0.248739 0.312185 0.269102 0.27735 0.245817 0.273151 0.237272 0.248739 0.220769 0.269102 0.234704 0.245817 0.218699 0.237272 0.208928 0.220769 0.197416 0.234704 0.20718 0.218699 0.195937 0.318023 0.355722 0.270847 0.295351 0.312092 0.346906 0.267335 0.289336 0.355722 0.385962 0.295351 0.312495 0.346906 0.375064 0.289336 0.306393 0.385962 0.397833 0.312495 0.318816 0.375064 0.38597 0.306393 0.312531 0.397833 0.38599 0.318816 0.312533 0.38597 0.375137 0.312531 0.306533 0.38599 0.356333 0.312533 0.295 0.375137 0.347693 0.306533 0.290003 0.356333 0.318349 0.295 0.273121 0.347693 0.312258 0.290003 0.269229 0.318349 0.281628 0.273121 0.248838 0.312258 0.27735 0.269229 0.245903 0.281628 0.248739 0.248838 0.225354 0.27735 0.245817 0.245903 0.223155 0.248739 0.220769 0.225354 0.203898 0.245817 0.218699 0.223155 0.202271 0.220769 0.197416 0.203898 0.184593 0.218699 0.195937 0.202271 0.183387 0.267378 0.289431 0.312145 0.346954 0.256993 0.276809 0.295469 0.324651 0.289431 0.306435 0.346954 0.375033 0.276809 0.289463 0.324651 0.34709 0.306435 0.312538 0.375033 0.38595 0.289463 0.295582 0.34709 0.355781 0.312538 0.306523 0.38595 0.375116 0.295582 0.289482 0.355781 0.347063 0.306523 0.289991 0.375116 0.347678 0.289482 0.277085 0.347063 0.324463 0.289991 0.26922 0.347678 0.312248 0.277085 0.258423 0.324463 0.295817 0.26922 0.245897 0.312248 0.277343 0.258423 0.237653 0.295817 0.265644 0.245897 0.223151 0.277343 0.245813 0.237653 0.216927 0.265644 0.237557 0.223151 0.202267 0.245813 0.218695 0.216927 0.197597 0.237557 0.212824 0.202267 0.183385 0.218695 0.195934 0.197597 0.179902 0.212824 0.191685 0.312145 0.346954 0.365074 0.425349 0.295469 0.324651 0.339368 0.384649 0.346954 0.375033 0.425349 0.479779 0.324651 0.34709 0.384649 0.425187 0.375033 0.38595 0.479779 0.503099 0.34709 0.355781 0.425187 0.44153 0.38595 0.375116 0.503099 0.481114 0.355781 0.347063 0.44153 0.425464 0.375116 0.347678 0.481114 0.425043 0.347063 0.324463 0.425464 0.385729 0.347678 0.312248 0.425043 0.365203 0.324463 0.295817 0.385729 0.33928 0.312248 0.277343 0.365203 0.31218 0.295817 0.265644 0.33928 0.29574 0.277343 0.245813 0.31218 0.269098 0.265644 0.237557 0.29574 0.258381 0.245813 0.218695 0.269098 0.234702 0.237557 0.212824 0.258381 0.227467 0.218695 0.195934 0.234702 0.207177 0.212824 0.191685 0.227467 0.202171 0.365074 0.425349 0.424652 0.532544 0.339368 0.384649 0.387699 0.46064 0.425349 0.479779 0.532544 0.651411 0.384649 0.425187 0.46064 0.531706 0.425043 0.365203 0.53145 0.425075 0.385729 0.33928 0.460216 0.384352 0.365203 0.31218 0.425075 0.346799 0.33928 0.29574 0.384352 0.324873 0.31218 0.269098 0.346799 0.290483 0.29574 0.258381 0.324873 0.277042 0.269098 0.234702 0.290483 0.248494 0.258381 0.227467 0.277042 0.23991 0.234702 0.207177 0.248494 0.216462 0.227467 0.202171 0.23991 0.210752 0.53145 0.425075 0.650954 0.480097 0.460216 0.384352 0.53139 0.425077 0.425075 0.346799 0.480097 0.373408 0.384352 0.324873 0.425077 0.346795 0.346799 0.290483 0.373408 0.306 0.324873 0.277042 0.346795 0.290477 0.290483 0.248494 0.306 0.257891 0.277042 0.23991 0.290477 0.248493 0.248494 0.216462 0.257891 0.222859 0.23991 0.210752 0.248493 0.216457 0.480097 0.373408 0.502702 0.383686 0.425077 0.346795 0.441439 0.355619 0.373408 0.306 0.383686 0.312079 0.346795 0.290477 0.355619 0.295984 0.306 0.257891 0.312079 0.262428 0.290477 0.248493 0.295984 0.25155 0.257891 0.222859 0.262428 0.224868 0.248493 0.216457 0.25155 0.218536 0.502702 0.383686 0.480083 0.373408 0.441439 0.355619 0.425081 0.346796 0.383686 0.312079 0.373408 0.306001 0.355619 0.295984 0.346796 0.290478 0.312079 0.262428 0.306001 0.257892 0.295984 0.25155 0.290478 0.248494 0.262428 0.224868 0.257892 0.22286 0.25155 0.218536 0.248494 0.216458 0.650874 0.480083 0.531459 0.425078 0.531429 0.425081 0.460225 0.384358 0.480083 0.373408 0.425078 0.346801 0.425081 0.346796 0.384358 0.324876 0.373408 0.306001 0.346801 0.290485 0.346796 0.290478 0.324876 0.277044 0.306001 0.257892 0.290485 0.248495 0.290478 0.248494 0.277044 0.239911 0.257892 0.22286 0.248495 0.216463 0.248494 0.216458 0.239911 0.210753 0.425402 0.530636 0.365209 0.425776 0.387745 0.460686 0.339126 0.386098 0.531459 0.425078 0.425061 0.365212 0.460225 0.384358 0.385747 0.339289 0.425078 0.346801 0.365212 0.312185 0.384358 0.324876 0.339289 0.295745 0.346801 0.290485 0.312185 0.269102 0.324876 0.277044 0.295745 0.258384 0.290485 0.248495 0.269102 0.234704 0.277044 0.239911 0.258384 0.227469 0.248495 0.216463 0.234704 0.20718 0.239911 0.210753 0.227469 0.202173 0.365209 0.425776 0.312092 0.346906 0.339126 0.386098 0.295575 0.324313 0.425776 0.481246 0.346906 0.375064 0.386098 0.425604 0.324313 0.347047 0.481246 0.503285 0.375064 0.38597 0.425604 0.441618 0.347047 0.355784 0.503285 0.481157 0.38597 0.375137 0.441618 0.425505 0.355784 0.347081 0.481157 0.425061 0.375137 0.347693 0.425505 0.385747 0.347081 0.324478 0.425061 0.365212 0.347693 0.312258 0.385747 0.339289 0.324478 0.295826 0.365212 0.312185 0.312258 0.27735 0.339289 0.295745 0.295826 0.265651 0.312185 0.269102 0.27735 0.245817 0.295745 0.258384 0.265651 0.237561 0.269102 0.234704 0.245817 0.218699 0.258384 0.227469 0.237561 0.212827 0.234704 0.20718 0.218699 0.195937 0.227469 0.202173 0.212827 0.191687 0.312092 0.346906 0.267335 0.289336 0.295575 0.324313 0.256897 0.276794 0.346906 0.375064 0.289336 0.306393 0.324313 0.347047 0.276794 0.289383 0.375064 0.38597 0.306393 0.312531 0.347047 0.355784 0.289383 0.29557 0.38597 0.375137 0.312531 0.306533 0.355784 0.347081 0.29557 0.289491 0.375137 0.347693 0.306533 0.290003 0.347081 0.324478 0.289491 0.277097 0.347693 0.312258 0.290003 0.269229 0.324478 0.295826 0.277097 0.258432 0.312258 0.27735 0.269229 0.245903 0.295826 0.265651 0.258432 0.237659 0.27735 0.245817 0.245903 0.223155 0.265651 0.237561 0.237659 0.216931 0.245817 0.218699 0.223155 0.202271 0.237561 0.212827 0.216931 0.1976 0.218699 0.195937 0.202271 0.183387 0.212827 0.191687 0.1976 0.179904 0.256993 0.276809 0.295469 0.324651 0.241986 0.258117 0.273078 0.295507 0.276809 0.289463 0.324651 0.34709 0.258117 0.26896 0.295507 0.312082 0.289463 0.295582 0.34709 0.355781 0.26896 0.272838 0.312082 0.318215 0.295582 0.289482 0.355781 0.347063 0.272838 0.26902 0.318215 0.312111 0.289482 0.277085 0.347063 0.324463 0.26902 0.258309 0.312111 0.29576 0.277085 0.258423 0.324463 0.295817 0.258309 0.243092 0.29576 0.273334 0.258423 0.237653 0.295817 0.265644 0.243092 0.22553 0.273334 0.249017 0.237653 0.216927 0.265644 0.237557 0.22553 0.207587 0.249017 0.225445 0.216927 0.197597 0.237557 0.212824 0.207587 0.190463 0.225445 0.203987 0.197597 0.179902 0.212824 0.191685 0.190463 0.174497 0.203987 0.185163 0.295469 0.324651 0.339368 0.384649 0.273078 0.295507 0.306842 0.339296 0.324651 0.34709 0.384649 0.425187 0.295507 0.312082 0.339296 0.365351 0.34709 0.355781 0.425187 0.44153 0.312082 0.318215 0.365351 0.375541 0.355781 0.347063 0.44153 0.425464 0.318215 0.312111 0.375541 0.365274 0.347063 0.324463 0.425464 0.385729 0.312111 0.29576 0.365274 0.339081 0.324463 0.295817 0.385729 0.33928 0.29576 0.273334 0.339081 0.306719 0.295817 0.265644 0.33928 0.29574 0.273334 0.249017 0.306719 0.273313 0.265644 0.237557 0.29574 0.258381 0.249017 0.225445 0.273313 0.243013 0.237557 0.212824 0.258381 0.227467 0.225445 0.203987 0.243013 0.216777 0.212824 0.191685 0.227467 0.202171 0.203987 0.185163 0.216777 0.194567 0.339368 0.384649 0.387699 0.46064 0.306842 0.339296 0.339068 0.386276 0.384649 0.425187 0.46064 0.531706 0.339296 0.365351 0.386276 0.425161 0.425187 0.44153 0.531706 0.566244 0.365351 0.375541 0.425161 0.441457 0.44153 0.425464 0.566244 0.529621 0.375541 0.365274 0.441457 0.425382 0.425464 0.385729 0.529621 0.460216 0.365274 0.339081 0.425382 0.385648 0.385729 0.33928 0.460216 0.384352 0.339081 0.306719 0.385648 0.339229 0.33928 0.29574 0.384352 0.324873 0.306719 0.273313 0.339229 0.295708 0.29574 0.258381 0.324873 0.277042 0.273313 0.243013 0.295708 0.25837 0.258381 0.227467 0.277042 0.23991 0.243013 0.216777 0.25837 0.227473 0.227467 0.202171 0.23991 0.210752 0.216777 0.194567 0.227473 0.202182 0.387699 0.46064 0.425355 0.530589 0.339068 0.386276 0.365103 0.425732 0.460216 0.384352 0.53139 0.425077 0.385648 0.339229 0.424979 0.365196 0.384352 0.324873 0.425077 0.346795 0.339229 0.295708 0.365196 0.312131 0.324873 0.277042 0.346795 0.290477 0.295708 0.25837 0.312131 0.269082 0.277042 0.23991 0.290477 0.248493 0.25837 0.227473 0.269082 0.234709 0.23991 0.210752 0.248493 0.216457 0.227473 0.202182 0.234709 0.207187 0.425355 0.530589 0.443954 0.566825 0.365103 0.425732 0.375364 0.441793 0.53139 0.425077 0.566268 0.441439 0.424979 0.365196 0.441344 0.375492 0.425077 0.346795 0.441439 0.355619 0.365196 0.312131 0.375492 0.318081 0.346795 0.290477 0.355619 0.295984 0.312131 0.269082 0.318081 0.273132 0.290477 0.248493 0.295984 0.25155 0.269082 0.234709 0.273132 0.237276 0.248493 0.216457 0.25155 0.218536 0.234709 0.207187 0.237276 0.208933 0.443954 0.566825 0.425331 0.530515 0.375364 0.441793 0.365111 0.42573 0.566268 0.441439 0.531429 0.425081 0.441344 0.375492 0.424985 0.365201 0.441439 0.355619 0.425081 0.346796 0.375492 0.318081 0.365201 0.312133 0.355619 0.295984 0.346796 0.290478 0.318081 0.273132 0.312133 0.269083 0.295984 0.25155 0.290478 0.248494 0.273132 0.237276 0.269083 0.23471 0.25155 0.218536 0.248494 0.216458 0.237276 0.208933 0.23471 0.207188 0.425331 0.530515 0.387745 0.460686 0.365111 0.42573 0.339139 0.386314 0.531429 0.425081 0.460225 0.384358 0.424985 0.365201 0.385664 0.339236 0.425081 0.346796 0.384358 0.324876 0.365201 0.312133 0.339236 0.295712 0.346796 0.290478 0.324876 0.277044 0.312133 0.269083 0.295712 0.258372 0.290478 0.248494 0.277044 0.239911 0.269083 0.23471 0.258372 0.227475 0.248494 0.216458 0.239911 0.210753 0.23471 0.207188 0.227475 0.202184 0.387745 0.460686 0.339126 0.386098 0.339139 0.386314 0.307031 0.339182 0.460686 0.529891 0.386098 0.425604 0.386314 0.425554 0.339182 0.365428 0.529891 0.56625 0.425604 0.441618 0.425554 0.441531 0.365428 0.375589 0.56625 0.529662 0.441618 0.425505 0.441531 0.425411 0.375589 0.3653 0.529662 0.460225 0.425505 0.385747 0.425411 0.385664 0.3653 0.339096 0.460225 0.384358 0.385747 0.339289 0.385664 0.339236 0.339096 0.306728 0.384358 0.324876 0.339289 0.295745 0.339236 0.295712 0.306728 0.273319 0.324876 0.277044 0.295745 0.258384 0.295712 0.258372 0.273319 0.243017 0.277044 0.239911 0.258384 0.227469 0.258372 0.227475 0.243017 0.21678 0.239911 0.210753 0.227469 0.202173 0.227475 0.202184 0.21678 0.194569 0.339126 0.386098 0.295575 0.324313 0.307031 0.339182 0.273087 0.295576 0.386098 0.425604 0.324313 0.347047 0.339182 0.365428 0.295576 0.312069 0.425604 0.441618 0.347047 0.355784 0.365428 0.375589 0.312069 0.31823 0.441618 0.425505 0.355784 0.347081 0.375589 0.3653 0.31823 0.312128 0.425505 0.385747 0.347081 0.324478 0.3653 0.339096 0.312128 0.295773 0.385747 0.339289 0.324478 0.295826 0.339096 0.306728 0.295773 0.273343 0.339289 0.295745 0.295826 0.265651 0.306728 0.273319 0.273343 0.249023 0.295745 0.258384 0.265651 0.237561 0.273319 0.243017 0.249023 0.225449 0.258384 0.227469 0.237561 0.212827 0.243017 0.21678 0.225449 0.20399 0.227469 0.202173 0.212827 0.191687 0.21678 0.194569 0.20399 0.185165 0.295575 0.324313 0.256897 0.276794 0.273087 0.295576 0.24198 0.258074 0.324313 0.347047 0.276794 0.289383 0.295576 0.312069 0.258074 0.268949 0.347047 0.355784 0.289383 0.29557 0.312069 0.31823 0.268949 0.272838 0.355784 0.347081 0.29557 0.289491 0.31823 0.312128 0.272838 0.26903 0.347081 0.324478 0.289491 0.277097 0.312128 0.295773 0.26903 0.25832 0.324478 0.295826 0.277097 0.258432 0.295773 0.273343 0.25832 0.2431 0.295826 0.265651 0.258432 0.237659 0.273343 0.249023 0.2431 0.225536 0.265651 0.237561 0.237659 0.216931 0.249023 0.225449 0.225536 0.207591 0.237561 0.212827 0.216931 0.1976 0.225449 0.20399 0.207591 0.190467 0.212827 0.191687 0.1976 0.179904 0.20399 0.185165 0.190467 0.1745 0.241986 0.258117 0.273078 0.295507 0.224648 0.23734 0.248745 0.265348 0.258117 0.26896 0.295507 0.312082 0.23734 0.245664 0.265348 0.277161 0.26896 0.272838 0.312082 0.318215 0.245664 0.24865 0.277161 0.281461 0.272838 0.26902 0.318215 0.312111 0.24865 0.245748 0.281461 0.277227 0.26902 0.258309 0.312111 0.29576 0.245748 0.237563 0.277227 0.265547 0.258309 0.243092 0.29576 0.273334 0.237563 0.225489 0.265547 0.248976 0.243092 0.22553 0.273334 0.249017 0.225489 0.211247 0.248976 0.230161 0.22553 0.207587 0.249017 0.225445 0.211247 0.196284 0.230161 0.211177 0.207587 0.190463 0.225445 0.203987 0.196284 0.181628 0.211177 0.193245 0.190463 0.174497 0.203987 0.185163 0.181628 0.167658 0.193245 0.177027 0.273078 0.295507 0.306842 0.339296 0.248745 0.265348 0.273064 0.295527 0.295507 0.312082 0.339296 0.365351 0.265348 0.277161 0.295527 0.311811 0.312082 0.318215 0.365351 0.375541 0.277161 0.281461 0.311811 0.317966 0.318215 0.312111 0.375541 0.365274 0.281461 0.277227 0.317966 0.311984 0.312111 0.29576 0.365274 0.339081 0.277227 0.265547 0.311984 0.295689 0.29576 0.273334 0.339081 0.306719 0.265547 0.248976 0.295689 0.273273 0.273334 0.249017 0.306719 0.273313 0.248976 0.230161 0.273273 0.248961 0.249017 0.225445 0.273313 0.243013 0.230161 0.211177 0.248961 0.225415 0.225445 0.203987 0.243013 0.216777 0.211177 0.193245 0.225415 0.204023 0.203987 0.185163 0.216777 0.194567 0.193245 0.177027 0.204023 0.185203 0.306842 0.339296 0.339068 0.386276 0.273064 0.295527 0.295314 0.323303 0.339296 0.365351 0.386276 0.425161 0.295527 0.311811 0.323303 0.346847 0.365351 0.375541 0.425161 0.441457 0.311811 0.317966 0.346847 0.35552 0.375541 0.365274 0.441457 0.425382 0.317966 0.311984 0.35552 0.34665 0.365274 0.339081 0.425382 0.385648 0.311984 0.295689 0.34665 0.324404 0.339081 0.306719 0.385648 0.339229 0.295689 0.273273 0.324404 0.295673 0.306719 0.273313 0.339229 0.295708 0.273273 0.248961 0.295673 0.265554 0.273313 0.243013 0.295708 0.25837 0.248961 0.225415 0.265554 0.237517 0.243013 0.216777 0.25837 0.227473 0.225415 0.204023 0.237517 0.212874 0.216777 0.194567 0.227473 0.202182 0.204023 0.185203 0.212874 0.191743 0.339068 0.386276 0.365103 0.425732 0.295314 0.323303 0.311722 0.346906 0.386276 0.425161 0.425732 0.481286 0.323303 0.346847 0.346906 0.374833 0.425161 0.441457 0.481286 0.503165 0.346847 0.35552 0.374833 0.385638 0.441457 0.425382 0.503165 0.48105 0.35552 0.34665 0.385638 0.374747 0.425382 0.385648 0.48105 0.424979 0.34665 0.324404 0.374747 0.346635 0.385648 0.339229 0.424979 0.365196 0.324404 0.295673 0.346635 0.31199 0.339229 0.295708 0.365196 0.312131 0.295673 0.265554 0.31199 0.277238 0.295708 0.25837 0.312131 0.269082 0.265554 0.237517 0.277238 0.245768 0.25837 0.227473 0.269082 0.234709 0.237517 0.212874 0.245768 0.218753 0.227473 0.202182 0.234709 0.207187 0.212874 0.191743 0.218753 0.195998 0.365103 0.425732 0.375364 0.441793 0.311722 0.346906 0.317884 0.355587 0.425732 0.481286 0.441793 0.50329 0.346906 0.374833 0.355587 0.385675 0.481286 0.503165 0.50329 0.530187 0.374833 0.385638 0.385675 0.397499 0.503165 0.48105 0.530187 0.503123 0.385638 0.374747 0.397499 0.38563 0.48105 0.424979 0.503123 0.441344 0.374747 0.346635 0.38563 0.355515 0.424979 0.365196 0.441344 0.375492 0.346635 0.31199 0.355515 0.317984 0.365196 0.312131 0.375492 0.318081 0.31199 0.277238 0.317984 0.281521 0.312131 0.269082 0.318081 0.273132 0.277238 0.245768 0.281521 0.248688 0.269082 0.234709 0.273132 0.237276 0.245768 0.218753 0.248688 0.220827 0.234709 0.207187 0.237276 0.208933 0.218753 0.195998 0.220827 0.197478 0.375364 0.441793 0.365111 0.42573 0.317884 0.355587 0.311733 0.346919 0.441793 0.50329 0.42573 0.481179 0.355587 0.385675 0.346919 0.374842 0.50329 0.530187 0.481179 0.503182 0.385675 0.397499 0.374842 0.385651 0.530187 0.503123 0.503182 0.481073 0.397499 0.38563 0.385651 0.374758 0.503123 0.441344 0.481073 0.424985 0.38563 0.355515 0.374758 0.346642 0.441344 0.375492 0.424985 0.365201 0.355515 0.317984 0.346642 0.311994 0.375492 0.318081 0.365201 0.312133 0.317984 0.281521 0.311994 0.27724 0.318081 0.273132 0.312133 0.269083 0.281521 0.248688 0.27724 0.245769 0.273132 0.237276 0.269083 0.23471 0.248688 0.220827 0.245769 0.218754 0.237276 0.208933 0.23471 0.207188 0.220827 0.197478 0.218754 0.195999 0.365111 0.42573 0.339139 0.386314 0.311733 0.346919 0.295333 0.323332 0.42573 0.481179